<event>
12    1  0.8297444E-002  0.1739111E+03  0.7818608E-02  0.1173972E+00
         21   -1    0    0  501  502  0.00000000000E+00  0.00000000000E+00  0.32829157646E+03  0.32829157646E+03  0.00000000000E+00 0. -1.
         21   -1    0    0  502  503 -0.00000000000E+00 -0.00000000000E+00 -0.15890054769E+03  0.15890054769E+03  0.00000000000E+00 0. -1.
         -6    2    1    2    0  503 -0.15347222313E+02 -0.15570764295E+02 -0.73485251688E+02  0.18879922581E+03  0.17253138705E+03 0.  0.
        -24    2    3    3    0    0 -0.29126064552E+02 -0.66856834671E+02 -0.14848645212E+02  0.10954987801E+03  0.80389859613E+02 0.  0.
          6    2    1    2  501    0  0.15347222313E+02  0.15570764295E+02  0.24287628046E+03  0.29839289834E+03  0.17196350844E+03 0.  0.
         24    2    5    5    0    0  0.34350101065E+02  0.15632419884E+02  0.25881253022E+03  0.27315072611E+03  0.78759706560E+02 0.  0.
          5    1    5    5  501    0 -0.19002878752E+02 -0.61655589303E-01 -0.15936249767E+02  0.25242172230E+02  0.47000000000E+01 0. -1.
        -13    1    6    6    0    0  0.35848585522E+01 -0.30536600986E+02  0.11402235118E+03  0.11809501166E+03  0.00000000000E+00 0.  1.
         14    1    6    6    0    0  0.30765242513E+02  0.46169020870E+02  0.14479017904E+03  0.15505571445E+03  0.00000000000E+00 0. -1.
         -5    1    3    3    0  503  0.13778842238E+02  0.51286070376E+02 -0.58636606476E+02  0.79249347802E+02  0.47000000000E+01 0.  1.
         13    1    4    4    0    0 -0.33001229627E+02 -0.70424623369E+02 -0.37465930328E+02  0.86327311257E+02  0.00000000000E+00 0. -1.
        -14    1    4    4    0    0  0.38751650751E+01  0.35677886980E+01  0.22617285115E+02  0.23222566752E+02  0.00000000000E+00 0.  1.
</event>
<event>
12    1  0.8297444E-002  0.1768387E+03  0.7818608E-02  0.1171144E+00
         21   -1    0    0  501  502  0.00000000000E+00  0.00000000000E+00  0.87522766628E+02  0.87522766628E+02  0.00000000000E+00 0.  1.
         21   -1    0    0  502  503 -0.00000000000E+00 -0.00000000000E+00 -0.35649971703E+03  0.35649971703E+03  0.00000000000E+00 0.  1.
         -6    2    1    2    0  503 -0.99952674352E+01 -0.35534973247E+02 -0.12124929477E+03  0.21359813553E+03  0.17193060323E+03 0.  0.
        -24    2    3    3    0    0  0.47855672375E+02 -0.24790861379E+02 -0.23494329958E+02  0.99404044960E+02  0.80152532261E+02 0.  0.
          6    2    1    2  501    0  0.99952674352E+01  0.35534973247E+02 -0.14772765563E+03  0.23042434812E+03  0.17294299718E+03 0.  0.
         24    2    5    5    0    0 -0.60390423285E+01 -0.17854179622E+02 -0.90805195196E+01  0.80916424969E+02  0.78165019240E+02 0.  0.
          5    1    5    5  501    0  0.16034309764E+02  0.53389152869E+02 -0.13864713611E+03  0.14950792315E+03  0.47000000000E+01 0. -1.
        -13    1    6    6    0    0 -0.37288231664E+02  0.49056830892E+00 -0.20965895643E+02  0.42781089958E+02  0.00000000000E+00 0.  1.
         14    1    6    6    0    0  0.31249189336E+02 -0.18344747931E+02  0.11885376123E+02  0.38135335011E+02  0.00000000000E+00 0. -1.
         -5    1    3    3    0  503 -0.57850939811E+02 -0.10744111868E+02 -0.97754964808E+02  0.11419409057E+03  0.47000000000E+01 0.  1.
         13    1    4    4    0    0 -0.20368389766E+02  0.19894236317E+01 -0.15509850776E+02  0.25678484751E+02  0.00000000000E+00 0. -1.
        -14    1    4    4    0    0  0.68224062141E+02 -0.26780285011E+02 -0.79844791826E+01  0.73725560209E+02  0.00000000000E+00 0.  1.
</event>
<event>
12    1  0.8297444E-002  0.2178198E+03  0.7818608E-02  0.1136034E+00
         21   -1    0    0  503  502  0.00000000000E+00  0.00000000000E+00  0.35189841051E+02  0.35189841051E+02  0.00000000000E+00 0. -1.
         21   -1    0    0  501  503 -0.00000000000E+00 -0.00000000000E+00 -0.21873407240E+04  0.21873407240E+04  0.00000000000E+00 0.  1.
          6    2    1    2  501    0  0.12723180271E+03  0.42232731718E+02 -0.17752550143E+04  0.17885680894E+04  0.17167967042E+03 0.  0.
         24    2    3    3    0    0  0.11368281788E+03 -0.31704123751E+02 -0.11909822769E+04  0.11994611761E+04  0.79620314823E+02 0.  0.
         -6    2    1    2    0  502 -0.12723180271E+03 -0.42232731718E+02 -0.37689586862E+03  0.43396247566E+03  0.16823019720E+03 0.  0.
        -24    2    5    5    0    0 -0.13828420179E+03 -0.16746133257E+02 -0.37183961187E+03  0.40533769691E+03  0.81430940884E+02 0.  0.
          5    1    3    3  501    0  0.13548984838E+02  0.73936855469E+02 -0.58427273742E+03  0.58910691328E+03  0.47000000000E+01 0. -1.
        -13    1    4    4    0    0  0.14645657143E+02 -0.26158049313E+02 -0.55317454037E+03  0.55398629129E+03  0.00000000000E+00 0.  1.
         14    1    4    4    0    0  0.99037160732E+02 -0.55460744376E+01 -0.63780773653E+03  0.64547488481E+03  0.00000000000E+00 0. -1.
         -5    1    5    5    0  502  0.11052399077E+02 -0.25486598461E+02 -0.50562567500E+01  0.28624778755E+02  0.47000000000E+01 0.  1.
         11    1    6    6    0    0 -0.52839472236E+02  0.16114006909E+02 -0.65879024303E+02  0.85975094580E+02  0.00000000000E+00 0. -1.
        -12    1    6    6    0    0 -0.85444729555E+02 -0.32860140166E+02 -0.30596058757E+03  0.31936260233E+03  0.00000000000E+00 0.  1.
</event>
<event>
12    1  0.8297444E-002  0.2064348E+03  0.7818608E-02  0.1146461E+00
         21   -1    0    0  501  502  0.00000000000E+00  0.00000000000E+00  0.99447481923E+03  0.99447481923E+03  0.00000000000E+00 0.  1.
         21   -1    0    0  502  503 -0.00000000000E+00 -0.00000000000E+00 -0.41266044910E+02  0.41266044910E+02  0.00000000000E+00 0.  1.
         -6    2    1    2    0  503 -0.15498019785E+02 -0.93076783257E+02  0.41237721215E+03  0.45685045472E+03  0.17249317864E+03 0.  0.
        -24    2    3    3    0    0  0.35365610131E+01 -0.46009423192E+01  0.31033513651E+03  0.32037714268E+03  0.79372165588E+02 0.  0.
          6    2    1    2  501    0  0.15498019785E+02  0.93076783257E+02  0.54083156217E+03  0.57889040942E+03  0.18360787370E+03 0.  0.
         24    2    5    5    0    0  0.94708878843E+01  0.42467986517E+02  0.51281819534E+03  0.52054304147E+03  0.78034152456E+02 0.  0.
          5    1    5    5  501    0  0.60271319004E+01  0.50608796741E+02  0.28013366828E+02  0.58347367957E+02  0.47000000000E+01 0. -1.
        -11    1    6    6    0    0  0.43661611157E+02  0.26117833178E+02  0.26439903714E+03  0.26924956516E+03  0.00000000000E+00 0.  1.
         12    1    6    6    0    0 -0.34190723273E+02  0.16350153338E+02  0.24841915820E+03  0.25129347630E+03  0.00000000000E+00 0. -1.
         -5    1    3    3    0  503 -0.19034580798E+02 -0.88475840938E+02  0.10204207565E+03  0.13647331204E+03  0.47000000000E+01 0.  1.
         11    1    4    4    0    0  0.37485471472E+02  0.13061762879E+02  0.19003779433E+03  0.19413946918E+03  0.00000000000E+00 0. -1.
        -12    1    4    4    0    0 -0.33948910459E+02 -0.17662705198E+02  0.12029734218E+03  0.12623767351E+03  0.00000000000E+00 0.  1.
</event>
<event>
12    1  0.8297444E-002  0.2025974E+03  0.7818608E-02  0.1147963E+00
         21   -1    0    0  501  502  0.00000000000E+00  0.00000000000E+00  0.17135602237E+03  0.17135602237E+03  0.00000000000E+00 0. -1.
         21   -1    0    0  502  503 -0.00000000000E+00 -0.00000000000E+00 -0.24865813896E+03  0.24865813896E+03  0.00000000000E+00 0. -1.
         -6    2    1    2    0  503  0.10291209877E+03 -0.25416965586E+02 -0.83379654443E+02  0.21732558694E+03  0.17041514531E+03 0.  0.
        -24    2    3    3    0    0  0.86871701288E+02  0.36951689696E+02 -0.89766677286E+02  0.15244086166E+03  0.79170954887E+02 0.  0.
          6    2    1    2  501    0 -0.10291209877E+03  0.25416965586E+02  0.60775378515E+01  0.20268857438E+03  0.17265225022E+03 0.  0.
         24    2    5    5    0    0 -0.50671609772E+02  0.69671434538E+02 -0.30483086858E+02  0.12493064236E+03  0.85186419041E+02 0.  0.
          5    1    5    5  501    0 -0.52240489000E+02 -0.44254468952E+02  0.36560624709E+02  0.77757932022E+02  0.47000000000E+01 0. -1.
        -13    1    6    6    0    0  0.20794819984E+02  0.33334459813E+01  0.41266180112E+01  0.21460786950E+02  0.00000000000E+00 0.  1.
         14    1    6    6    0    0 -0.71466429756E+02  0.66337988556E+02 -0.34609704869E+02  0.10346985541E+03  0.00000000000E+00 0. -1.
         -5    1    3    3    0  503  0.16040397484E+02 -0.62368655282E+02  0.63870228429E+01  0.64884725274E+02  0.47000000000E+01 0.  1.
         13    1    4    4    0    0  0.15266404729E+02  0.33911868703E+02  0.48589460967E+00  0.37192930052E+02  0.00000000000E+00 0. -1.
        -14    1    4    4    0    0  0.71605296560E+02  0.30398209930E+01 -0.90252571895E+02  0.11524793161E+03  0.00000000000E+00 0.  1.
</event>
<event>
12    1  0.8297444E-002  0.2508683E+03  0.7818608E-02  0.1112998E+00
         21   -1    0    0  501  502  0.00000000000E+00  0.00000000000E+00  0.13228918852E+03  0.13228918852E+03  0.00000000000E+00 0. -1.
         21   -1    0    0  502  503 -0.00000000000E+00 -0.00000000000E+00 -0.80366193105E+03  0.80366193105E+03  0.00000000000E+00 0.  1.
         -6    2    1    2    0  503  0.13711221119E+03 -0.11734258169E+03 -0.63533042556E+03  0.68250691223E+03  0.17205201442E+03 0.  0.
        -24    2    3    3    0    0  0.79889174500E+01 -0.14427148886E+02 -0.23270995194E+03  0.24731758897E+03  0.82098128230E+02 0.  0.
          6    2    1    2  501    0 -0.13711221119E+03  0.11734258169E+03 -0.36042316975E+02  0.25344420734E+03  0.17425807782E+03 0.  0.
         24    2    5    5    0    0 -0.15297854336E+03  0.94128547593E+02 -0.70703748139E+02  0.20856507315E+03  0.78979437412E+02 0.  0.
          5    1    5    5  501    0  0.15866332169E+02  0.23214034095E+02  0.34661431164E+02  0.44879134192E+02  0.47000000000E+01 0. -1.
        -11    1    6    6    0    0 -0.86909802399E+02  0.83157355484E+02 -0.74494185871E+02  0.14148442760E+03  0.00000000000E+00 0.  1.
         12    1    6    6    0    0 -0.66068740965E+02  0.10971192108E+02  0.37904377318E+01  0.67080645548E+02  0.00000000000E+00 0. -1.
         -5    1    3    3    0  503  0.12912329374E+03 -0.10291543280E+03 -0.40262047362E+03  0.43518932326E+03  0.47000000000E+01 0.  1.
         11    1    4    4    0    0  0.22798557876E+02 -0.41352949926E+02 -0.93398750061E+02  0.10465738016E+03  0.00000000000E+00 0. -1.
        -12    1    4    4    0    0 -0.14809640426E+02  0.26925801040E+02 -0.13931120188E+03  0.14266020881E+03  0.00000000000E+00 0.  1.
</event>
<event>
12    1  0.8297444E-002  0.1930364E+03  0.7818608E-02  0.1155838E+00
         21   -1    0    0  503  502  0.00000000000E+00  0.00000000000E+00  0.26093139342E+03  0.26093139342E+03  0.00000000000E+00 0. -1.
         21   -1    0    0  501  503 -0.00000000000E+00 -0.00000000000E+00 -0.26015864622E+03  0.26015864622E+03  0.00000000000E+00 0.  1.
          6    2    1    2  501    0 -0.77160745993E+02 -0.38340972941E+02 -0.17481706877E+03  0.26043051297E+03  0.17274036477E+03 0.  0.
         24    2    3    3    0    0 -0.54061957162E+02 -0.70655285874E+02 -0.18299578353E+03  0.21960466036E+03  0.82606812243E+02 0.  0.
         -6    2    1    2    0  502  0.77160745993E+02  0.38340972941E+02  0.17558981597E+03  0.26065952668E+03  0.17230146386E+03 0.  0.
        -24    2    5    5    0    0  0.11639442890E+03  0.14634276617E+02  0.15452803774E+03  0.20999417533E+03  0.80354303537E+02 0.  0.
          5    1    3    3  501    0 -0.23098788831E+02  0.32314312933E+02  0.81787147561E+01  0.40825852604E+02  0.47000000000E+01 0. -1.
        -13    1    4    4    0    0 -0.71561273529E+02 -0.69711379912E+02 -0.13108108446E+03  0.16481184139E+03  0.00000000000E+00 0.  1.
         14    1    4    4    0    0  0.17499316366E+02 -0.94390596223E+00 -0.51914699066E+02  0.54792818972E+02  0.00000000000E+00 0. -1.
         -5    1    5    5    0  502 -0.39233682903E+02  0.23706696324E+02  0.21061778238E+02  0.50665351349E+02  0.47000000000E+01 0.  1.
         13    1    6    6    0    0  0.48523413363E+02 -0.32717446266E+02  0.75883097939E+02  0.95829001286E+02  0.00000000000E+00 0. -1.
        -14    1    6    6    0    0  0.67871015534E+02  0.47351722883E+02  0.78644939797E+02  0.11416517405E+03  0.00000000000E+00 0.  1.
</event>
<event>
12    1  0.8297444E-002  0.1756387E+03  0.7818608E-02  0.1175449E+00
         21   -1    0    0  501  502  0.00000000000E+00  0.00000000000E+00  0.10788841179E+04  0.10788841179E+04  0.00000000000E+00 0.  1.
         21   -1    0    0  502  503 -0.00000000000E+00 -0.00000000000E+00 -0.27181907911E+02  0.27181907911E+02  0.00000000000E+00 0.  1.
         -6    2    1    2    0  503  0.25172196594E+02  0.25185433939E+02  0.59174572679E+03  0.61371563238E+03  0.15879523510E+03 0.  0.
        -24    2    3    3    0    0  0.63993295006E+02  0.45735162104E+02  0.48980936097E+03  0.50261891017E+03  0.80781878582E+02 0.  0.
          6    2    1    2  501    0 -0.25172196594E+02 -0.25185433939E+02  0.45995648319E+03  0.49235039342E+03  0.17199127277E+03 0.  0.
         24    2    5    5    0    0 -0.99347111774E+01 -0.47273000839E+02  0.45513850918E+03  0.46468553400E+03  0.80300360326E+02 0.  0.
          5    1    5    5  501    0 -0.15237485417E+02  0.22087566900E+02  0.48179740034E+01  0.27664859423E+02  0.47000000000E+01 0. -1.
        -13    1    6    6    0    0 -0.15811470248E+02 -0.61492323651E+01  0.15164477114E+02  0.22754714153E+02  0.00000000000E+00 0.  1.
         14    1    6    6    0    0  0.58767590702E+01 -0.41123768474E+02  0.43997403207E+03  0.44193081984E+03  0.00000000000E+00 0. -1.
         -5    1    3    3    0  503 -0.38821098412E+02 -0.20549728165E+02  0.10193636583E+03  0.11109672222E+03  0.47000000000E+01 0.  1.
         13    1    4    4    0    0 -0.22126826811E+01  0.20101924467E+02  0.28757079518E+03  0.28828101840E+03  0.00000000000E+00 0. -1.
        -14    1    4    4    0    0  0.66205977687E+02  0.25633237637E+02  0.20223856579E+03  0.21433789176E+03  0.00000000000E+00 0.  1.
</event>
<event>
12    1  0.8297444E-002  0.1995804E+03  0.7818608E-02  0.1150156E+00
         21   -1    0    0  503  502  0.00000000000E+00  0.00000000000E+00  0.65330404736E+03  0.65330404736E+03  0.00000000000E+00 0. -1.
         21   -1    0    0  501  503 -0.00000000000E+00 -0.00000000000E+00 -0.62111270206E+02  0.62111270206E+02  0.00000000000E+00 0. -1.
          6    2    1    2  501    0  0.10128176681E+02 -0.10005039563E+03  0.24546034462E+03  0.31635915068E+03  0.17239393785E+03 0.  0.
         24    2    3    3    0    0 -0.29122701637E+02  0.72011326170E+01  0.12184944981E+03  0.14799862955E+03  0.78462206617E+02 0.  0.
         -6    2    1    2    0  502 -0.10128176681E+02  0.10005039563E+03  0.34573243253E+03  0.39905616688E+03  0.17205303774E+03 0.  0.
        -24    2    5    5    0    0  0.19336448205E+02  0.48436141319E+02  0.65224417395E+02  0.11228268149E+03  0.75054766165E+02 0.  0.
          5    1    3    3  501    0  0.39250878318E+02 -0.10725152825E+03  0.12361089481E+03  0.16836052113E+03  0.47000000000E+01 0. -1.
        -13    1    4    4    0    0 -0.19183950645E+02  0.34899275062E+02  0.25580069271E+02  0.47332053686E+02  0.00000000000E+00 0.  1.
         14    1    4    4    0    0 -0.99387509921E+01 -0.27698142445E+02  0.96269380542E+02  0.10066657586E+03  0.00000000000E+00 0. -1.
         -5    1    5    5    0  502 -0.29464624886E+02  0.51614254310E+02  0.28050801513E+03  0.28677348539E+03  0.47000000000E+01 0.  1.
         13    1    6    6    0    0  0.34576435139E+01 -0.20282669436E+02  0.11095880052E+02  0.23376495294E+02  0.00000000000E+00 0. -1.
        -14    1    6    6    0    0  0.15878804691E+02  0.68718810754E+02  0.54128537343E+02  0.88906186201E+02  0.00000000000E+00 0.  1.
</event>
<event>
12    1  0.8297444E-002  0.2064362E+03  0.7818608E-02  0.1144452E+00
         21   -1    0    0  503  502  0.00000000000E+00  0.00000000000E+00  0.21249487192E+03  0.21249487192E+03  0.00000000000E+00 0. -1.
         21   -1    0    0  501  503 -0.00000000000E+00 -0.00000000000E+00 -0.13271620258E+04  0.13271620258E+04  0.00000000000E+00 0. -1.
          6    2    1    2  501    0  0.42241751319E+02  0.10544551103E+03 -0.12666965750E+04  0.12834080167E+04  0.17237402044E+03 0.  0.
         24    2    3    3    0    0 -0.23309982956E+02  0.11058420658E+03 -0.77336890247E+03  0.78569553091E+03  0.80285652032E+02 0.  0.
         -6    2    1    2    0  502 -0.42241751319E+02 -0.10544551103E+03  0.15202942110E+03  0.25624888101E+03  0.17218426986E+03 0.  0.
        -24    2    5    5    0    0 -0.80261716005E+02 -0.28697058159E+02  0.11106864973E+03  0.16119248972E+03  0.79883099512E+02 0.  0.
          5    1    3    3  501    0  0.65551734275E+02 -0.51386955485E+01 -0.49332767252E+03  0.49771248581E+03  0.47000000000E+01 0. -1.
        -13    1    4    4    0    0  0.19088826727E+02  0.88713450996E+02 -0.52548086455E+03  0.53325847270E+03  0.00000000000E+00 0.  1.
         14    1    4    4    0    0 -0.42398809683E+02  0.21870755585E+02 -0.24788803792E+03  0.25243705821E+03  0.00000000000E+00 0. -1.
         -5    1    5    5    0  502  0.38019964686E+02 -0.76748452874E+02  0.40960771372E+02  0.95056391287E+02  0.47000000000E+01 0.  1.
         13    1    6    6    0    0 -0.31435253955E+02 -0.49207893575E-01  0.98239975057E+02  0.10314683859E+03  0.00000000000E+00 0. -1.
        -14    1    6    6    0    0 -0.48826462050E+02 -0.28647850266E+02  0.12828674670E+02  0.58045651129E+02  0.00000000000E+00 0.  1.
</event>
<event>
12    1  0.8297444E-002  0.2093159E+03  0.7818608E-02  0.1143539E+00
         21   -1    0    0  501  502  0.00000000000E+00  0.00000000000E+00  0.11677420789E+04  0.11677420789E+04  0.00000000000E+00 0.  1.
         21   -1    0    0  502  503 -0.00000000000E+00 -0.00000000000E+00 -0.52196986034E+02  0.52196986034E+02  0.00000000000E+00 0. -1.
         -6    2    1    2    0  503  0.11725427240E+03  0.20504656731E+02  0.22745569072E+03  0.30911038813E+03  0.17217472366E+03 0.  0.
        -24    2    3    3    0    0  0.66550458048E+02  0.25669585748E+02  0.40700579899E+02  0.11546867078E+03  0.81170103047E+02 0.  0.
          6    2    1    2  501    0 -0.11725427240E+03 -0.20504656731E+02  0.88808940213E+03  0.91082867679E+03  0.16351479118E+03 0.  0.
         24    2    5    5    0    0 -0.14916819472E+03 -0.15809687762E+02  0.75232009581E+03  0.77120082960E+03  0.79146045184E+02 0.  0.
          5    1    5    5  501    0  0.31913922323E+02 -0.46949689692E+01  0.13576930632E+03  0.13962784719E+03  0.47000000000E+01 0. -1.
        -11    1    6    6    0    0 -0.56598650337E+02 -0.33310716144E+02  0.44332828162E+03  0.44816623736E+03  0.00000000000E+00 0.  1.
         12    1    6    6    0    0 -0.92569544386E+02  0.17501028382E+02  0.30899181419E+03  0.32303459223E+03  0.00000000000E+00 0. -1.
         -5    1    3    3    0  503  0.50703814352E+02 -0.51649290173E+01  0.18675511082E+03  0.19364171735E+03  0.47000000000E+01 0.  1.
         13    1    4    4    0    0  0.24170390782E+02 -0.27452034738E+02  0.63606990119E+00  0.36581779436E+02  0.00000000000E+00 0. -1.
        -14    1    4    4    0    0  0.42380067267E+02  0.53121620486E+02  0.40064509998E+02  0.78886891344E+02  0.00000000000E+00 0.  1.
</event>
<event>
12    1  0.8297444E-002  0.2468474E+03  0.7818608E-02  0.1117334E+00
         21   -1    0    0  501  502  0.00000000000E+00  0.00000000000E+00  0.35359579407E+03  0.35359579407E+03  0.00000000000E+00 0. -1.
         21   -1    0    0  502  503 -0.00000000000E+00 -0.00000000000E+00 -0.26198995261E+03  0.26198995261E+03  0.00000000000E+00 0. -1.
         -6    2    1    2    0  503 -0.10941086201E+03  0.13479433584E+03 -0.14323719756E+03  0.27487340860E+03  0.15779178144E+03 0.  0.
        -24    2    3    3    0    0 -0.32880422483E+02  0.11435453516E+03 -0.13346358437E+03  0.19492150343E+03  0.77613028881E+02 0.  0.
          6    2    1    2  501    0  0.10941086201E+03 -0.13479433584E+03  0.23484303903E+03  0.34071233808E+03  0.17548046796E+03 0.  0.
         24    2    5    5    0    0  0.20382414462E+02 -0.21767596631E+02  0.15309514814E+03  0.17516501579E+03  0.79720682957E+02 0.  0.
          5    1    5    5  501    0  0.89028447547E+02 -0.11302673921E+03  0.81747890891E+02  0.16554732228E+03  0.47000000000E+01 0. -1.
        -11    1    6    6    0    0 -0.53048371802E+01 -0.40058159051E+01 -0.83806843039E+01  0.10696902728E+02  0.00000000000E+00 0.  1.
         12    1    6    6    0    0  0.25687251643E+02 -0.17761780726E+02  0.16147583244E+03  0.16446811307E+03  0.00000000000E+00 0. -1.
         -5    1    3    3    0  503 -0.76530439527E+02  0.20439800680E+02 -0.97736131953E+01  0.79951905174E+02  0.47000000000E+01 0.  1.
         13    1    4    4    0    0  0.22145872930E+02  0.57323222621E+02 -0.71805090786E+02  0.94511177129E+02  0.00000000000E+00 0. -1.
        -14    1    4    4    0    0 -0.55026295413E+02  0.57031312543E+02 -0.61658493582E+02  0.10041032630E+03  0.00000000000E+00 0.  1.
</event>
<event>
12    1  0.8297444E-002  0.2517296E+03  0.7818608E-02  0.1112476E+00
         21   -1    0    0  503  502  0.00000000000E+00  0.00000000000E+00  0.77891323749E+03  0.77891323749E+03  0.00000000000E+00 0.  1.
         21   -1    0    0  501  503 -0.00000000000E+00 -0.00000000000E+00 -0.80868959593E+02  0.80868959593E+02  0.00000000000E+00 0.  1.
          6    2    1    2  501    0 -0.13401761937E+03  0.12296889499E+03  0.33743115695E+03  0.41999859523E+03  0.17163030873E+03 0.  0.
         24    2    3    3    0    0 -0.95879278861E+02  0.13065697013E+03  0.16956647179E+03  0.24762028441E+03  0.79365842383E+02 0.  0.
         -6    2    1    2    0  502  0.13401761937E+03 -0.12296889499E+03  0.36061312095E+03  0.43978360186E+03  0.17402793462E+03 0.  0.
        -24    2    5    5    0    0  0.84483178054E+02 -0.29598488176E+02  0.28542087165E+03  0.30998507298E+03  0.81315395953E+02 0.  0.
          5    1    3    3  501    0 -0.38138340511E+02 -0.76880751406E+01  0.16786468516E+03  0.17237831082E+03  0.47000000000E+01 0. -1.
        -13    1    4    4    0    0 -0.78836615461E+02  0.68460919497E+02  0.59836970610E+02  0.12034356022E+03  0.00000000000E+00 0.  1.
         14    1    4    4    0    0 -0.17042663400E+02  0.62196050631E+02  0.10972950118E+03  0.12727672418E+03  0.00000000000E+00 0. -1.
         -5    1    5    5    0  502  0.49534441317E+02 -0.93370406811E+02  0.75192249294E+02  0.12979852888E+03  0.47000000000E+01 0.  1.
         13    1    6    6    0    0 -0.14274273983E+02 -0.77719985907E+01  0.71999702028E+02  0.73811353815E+02  0.00000000000E+00 0. -1.
        -14    1    6    6    0    0  0.98757452037E+02 -0.21826489586E+02  0.21342116962E+03  0.23617371916E+03  0.00000000000E+00 0.  1.
</event>
<event>
12    1  0.8297444E-002  0.2451918E+03  0.7818608E-02  0.1117041E+00
         21   -1    0    0  503  502  0.00000000000E+00  0.00000000000E+00  0.84268833285E+03  0.84268833285E+03  0.00000000000E+00 0. -1.
         21   -1    0    0  501  503 -0.00000000000E+00 -0.00000000000E+00 -0.72202737681E+02  0.72202737681E+02  0.00000000000E+00 0. -1.
          6    2    1    2  501    0 -0.19597993633E+02  0.17281745425E+03  0.31165653336E+03  0.39654613468E+03  0.17282675806E+03 0.  0.
         24    2    3    3    0    0  0.32718078397E+02  0.35752365715E+02  0.88349038661E+02  0.12931564040E+03  0.81044912929E+02 0.  0.
         -6    2    1    2    0  502  0.19597993633E+02 -0.17281745425E+03  0.45882906181E+03  0.51834493585E+03  0.16705511278E+03 0.  0.
        -24    2    5    5    0    0  0.16317308023E+02  0.10531540928E+01  0.17007464462E+03  0.18123522849E+03  0.60443855186E+02 0.  0.
          5    1    3    3  501    0 -0.52316072030E+02  0.13706508854E+03  0.22330749470E+03  0.26723049428E+03  0.47000000000E+01 0. -1.
        -11    1    4    4    0    0  0.37534283853E+02  0.59038775880E+02  0.58811942219E+02  0.91396083446E+02  0.00000000000E+00 0.  1.
         12    1    4    4    0    0 -0.48162054565E+01 -0.23286410165E+02  0.29537096442E+02  0.37919556954E+02  0.00000000000E+00 0. -1.
         -5    1    5    5    0  502  0.32806856103E+01 -0.17387060834E+03  0.28875441719E+03  0.33710970735E+03  0.47000000000E+01 0.  1.
         11    1    6    6    0    0 -0.81909261509E+01 -0.94161683867E+01  0.14191894819E+03  0.14246663945E+03  0.00000000000E+00 0. -1.
        -12    1    6    6    0    0  0.24508234174E+02  0.10469322479E+02  0.28155696424E+02  0.38768589046E+02  0.00000000000E+00 0.  1.
</event>
<event>
12    1  0.8297444E-002  0.2410886E+03  0.7818608E-02  0.1119132E+00
         21   -1    0    0  503  502  0.00000000000E+00  0.00000000000E+00  0.39309185555E+03  0.39309185555E+03  0.00000000000E+00 0.  1.
         21   -1    0    0  501  503 -0.00000000000E+00 -0.00000000000E+00 -0.15711335638E+03  0.15711335638E+03  0.00000000000E+00 0.  1.
          6    2    1    2  501    0 -0.10529175470E+03 -0.13221428836E+03  0.50500354770E+02  0.24632090265E+03  0.17192070730E+03 0.  0.
         24    2    3    3    0    0 -0.19263417368E+02 -0.13119159331E+03  0.21130072470E+02  0.15529000564E+03  0.78014053116E+02 0.  0.
         -6    2    1    2    0  502  0.10529175470E+03  0.13221428836E+03  0.18547814440E+03  0.30388430928E+03  0.17139591513E+03 0.  0.
        -24    2    5    5    0    0  0.19307424494E+02  0.16126545233E+02  0.24547203526E+02  0.87573128628E+02  0.80210009069E+02 0.  0.
          5    1    3    3  501    0 -0.86028337330E+02 -0.10226950447E+01  0.29370282300E+02  0.91030897015E+02  0.47000000000E+01 0. -1.
        -13    1    4    4    0    0 -0.35127756051E+02 -0.95424482003E+02  0.43071059860E+02  0.11043055378E+03  0.00000000000E+00 0.  1.
         14    1    4    4    0    0  0.15864338683E+02 -0.35767111310E+02 -0.21940987390E+02  0.44859451857E+02  0.00000000000E+00 0. -1.
         -5    1    5    5    0  502  0.85984330204E+02  0.11608774312E+03  0.16093094087E+03  0.21631118065E+03  0.47000000000E+01 0.  1.
         11    1    6    6    0    0  0.38383319997E+02  0.14024156370E+02 -0.15067626665E+02  0.43554443967E+02  0.00000000000E+00 0. -1.
        -12    1    6    6    0    0 -0.19075895503E+02  0.21023888627E+01  0.39614830191E+02  0.44018684661E+02  0.00000000000E+00 0.  1.
</event>
<event>
12    1  0.8297444E-002  0.1756303E+03  0.7818608E-02  0.1172113E+00
         21   -1    0    0  503  502  0.00000000000E+00  0.00000000000E+00  0.78380822729E+02  0.78380822729E+02  0.00000000000E+00 0. -1.
         21   -1    0    0  501  503 -0.00000000000E+00 -0.00000000000E+00 -0.16770760595E+04  0.16770760595E+04  0.00000000000E+00 0. -1.
          6    2    1    2  501    0 -0.25040210318E+02 -0.28585420264E+02 -0.15672803659E+04  0.15770902818E+04  0.17146974408E+03 0.  0.
         24    2    3    3    0    0 -0.57673682186E+02  0.17510804958E+01 -0.14074865494E+04  0.14111342618E+04  0.83379843221E+02 0.  0.
         -6    2    1    2    0  502  0.25040210318E+02  0.28585420264E+02 -0.31414870867E+02  0.17836660045E+03  0.17141648597E+03 0.  0.
        -24    2    5    5    0    0  0.60547884437E+02 -0.10331422825E+02  0.19914032882E+02  0.10466407704E+03  0.82372420808E+02 0.  0.
          5    1    3    3  501    0  0.32633471868E+02 -0.30336500760E+02 -0.15979381651E+03  0.16595601996E+03  0.47000000000E+01 0. -1.
        -13    1    4    4    0    0 -0.48899161705E+02  0.18124710661E+02 -0.38920596255E+03  0.39268424267E+03  0.00000000000E+00 0.  1.
         14    1    4    4    0    0 -0.87745204809E+01 -0.16373630165E+02 -0.10182805869E+04  0.10184500192E+04  0.00000000000E+00 0. -1.
         -5    1    5    5    0  502 -0.35507674119E+02  0.38916843089E+02 -0.51328903749E+02  0.73702523413E+02  0.47000000000E+01 0.  1.
         11    1    6    6    0    0 -0.76364088287E+01 -0.17156660490E+02  0.30007783871E+02  0.35399616266E+02  0.00000000000E+00 0. -1.
        -12    1    6    6    0    0  0.68184293266E+02  0.68252376654E+01 -0.10093750988E+02  0.69264460774E+02  0.00000000000E+00 0.  1.
</event>
<event>
12    1  0.8297444E-002  0.2222355E+03  0.7818608E-02  0.1132404E+00
         21   -1    0    0  501  502  0.00000000000E+00  0.00000000000E+00  0.21077835545E+03  0.21077835545E+03  0.00000000000E+00 0. -1.
         21   -1    0    0  502  503 -0.00000000000E+00 -0.00000000000E+00 -0.27107850287E+03  0.27107850287E+03  0.00000000000E+00 0.  1.
         -6    2    1    2    0  503  0.14091881368E+02 -0.14009487052E+03  0.59728064896E+02  0.23012181449E+03  0.17194026260E+03 0.  0.
        -24    2    3    3    0    0 -0.13654214056E+02 -0.26453431252E+02 -0.14058520316E+02  0.91735497656E+02  0.85624400437E+02 0.  0.
          6    2    1    2  501    0 -0.14091881368E+02  0.14009487052E+03 -0.12002821232E+03  0.25173504383E+03  0.17070034174E+03 0.  0.
         24    2    5    5    0    0  0.45713825809E+02  0.92222893470E+02 -0.11638835533E+03  0.17489893671E+03  0.80303006519E+02 0.  0.
          5    1    5    5  501    0 -0.59805707178E+02  0.47871977051E+02 -0.36398569899E+01  0.76836107116E+02  0.47000000000E+01 0. -1.
        -13    1    6    6    0    0  0.54654631324E+02  0.97717909237E+02 -0.81551163928E+02  0.13851538127E+03  0.00000000000E+00 0.  1.
         14    1    6    6    0    0 -0.89408055150E+01 -0.54950157672E+01 -0.34837191405E+02  0.36383555441E+02  0.00000000000E+00 0. -1.
         -5    1    3    3    0  503  0.27746095425E+02 -0.11364143927E+03  0.73786585212E+02  0.13838631684E+03  0.47000000000E+01 0.  1.
         11    1    4    4    0    0  0.54285028708E+01 -0.39065764831E+02  0.24838910374E+02  0.46610879565E+02  0.00000000000E+00 0. -1.
        -12    1    4    4    0    0 -0.19082716927E+02  0.12612333578E+02 -0.38897430690E+02  0.45124618091E+02  0.00000000000E+00 0.  1.
</event>
<event>
12    1  0.8297444E-002  0.2157285E+03  0.7818608E-02  0.1137140E+00
         21   -1    0    0  501  502  0.00000000000E+00  0.00000000000E+00  0.93469182987E+03  0.93469182987E+03  0.00000000000E+00 0.  1.
         21   -1    0    0  502  503 -0.00000000000E+00 -0.00000000000E+00 -0.54993693413E+02  0.54993693413E+02  0.00000000000E+00 0. -1.
         -6    2    1    2    0  503  0.96872266769E+02  0.87389840705E+02  0.59277997261E+03  0.63081444792E+03  0.17180672702E+03 0.  0.
        -24    2    3    3    0    0  0.11972004983E+03  0.95034473173E+02  0.40174622563E+03  0.43821007600E+03  0.85226753314E+02 0.  0.
          6    2    1    2  501    0 -0.96872266769E+02 -0.87389840705E+02  0.28691816384E+03  0.35887107536E+03  0.17159602460E+03 0.  0.
         24    2    5    5    0    0 -0.15027649041E+01  0.50128121539E+01  0.83820437948E+02  0.11616885369E+03  0.80261760265E+02 0.  0.
          5    1    5    5  501    0 -0.95369501865E+02 -0.92402652859E+02  0.20309772590E+03  0.24270222167E+03  0.47000000000E+01 0. -1.
        -13    1    6    6    0    0  0.19581702043E+02 -0.17801269120E+02  0.80722533110E+02  0.84949723890E+02  0.00000000000E+00 0.  1.
         14    1    6    6    0    0 -0.21084466947E+02  0.22814081274E+02  0.30979048374E+01  0.31219129796E+02  0.00000000000E+00 0. -1.
         -5    1    3    3    0  503 -0.22847783061E+02 -0.76446324679E+01  0.19103374698E+03  0.19260437192E+03  0.47000000000E+01 0.  1.
         11    1    4    4    0    0  0.12172037456E+03  0.10248010457E+03  0.33332239754E+03  0.36935327549E+03  0.00000000000E+00 0. -1.
        -12    1    4    4    0    0 -0.20003247283E+01 -0.74456313994E+01  0.68423828093E+02  0.68856800513E+02  0.00000000000E+00 0.  1.
</event>
<event>
12    1  0.8297444E-002  0.1896676E+03  0.7818608E-02  0.1159597E+00
         21   -1    0    0  501  502  0.00000000000E+00  0.00000000000E+00  0.42120206225E+02  0.42120206225E+02  0.00000000000E+00 0.  1.
         21   -1    0    0  502  503 -0.00000000000E+00 -0.00000000000E+00 -0.17092402047E+04  0.17092402047E+04  0.00000000000E+00 0.  1.
         -6    2    1    2    0  503 -0.17494521003E+02  0.72464533567E+02 -0.14628275870E+04  0.14750723227E+04  0.17440367287E+03 0.  0.
        -24    2    3    3    0    0  0.12735520163E+02 -0.14185290155E+02 -0.47549750490E+03  0.48347521284E+03  0.85363858436E+02 0.  0.
          6    2    1    2  501    0  0.17494521003E+02 -0.72464533567E+02 -0.20429241154E+03  0.27628808826E+03  0.17041875311E+03 0.  0.
         24    2    5    5    0    0 -0.52702003303E+02 -0.58908811011E+02 -0.10796372287E+03  0.15623553352E+03  0.80657469037E+02 0.  0.
          5    1    5    5  501    0  0.70196524306E+02 -0.13555722556E+02 -0.96328688671E+02  0.12005255474E+03  0.47000000000E+01 0. -1.
        -11    1    6    6    0    0  0.49319049082E+01 -0.10252192775E+02  0.10707173180E+02  0.15622890265E+02  0.00000000000E+00 0.  1.
         12    1    6    6    0    0 -0.57633908211E+02 -0.48656618236E+02 -0.11867089605E+03  0.14061264326E+03  0.00000000000E+00 0. -1.
         -5    1    3    3    0  503 -0.30230041166E+02  0.86649823721E+02 -0.98733008207E+03  0.99159710987E+03  0.47000000000E+01 0.  1.
         11    1    4    4    0    0 -0.21350767405E+02  0.14603960655E+02 -0.56868125291E+02  0.62474911842E+02  0.00000000000E+00 0. -1.
        -12    1    4    4    0    0  0.34086287568E+02 -0.28789250810E+02 -0.41862937961E+03  0.42100030099E+03  0.00000000000E+00 0.  1.
</event>
<event>
12    1  0.8297444E-002  0.2122966E+03  0.7818608E-02  0.1142073E+00
         21   -1    0    0  501  502  0.00000000000E+00  0.00000000000E+00  0.69507495237E+03  0.69507495237E+03  0.00000000000E+00 0.  1.
         21   -1    0    0  502  503 -0.00000000000E+00 -0.00000000000E+00 -0.63354787840E+02  0.63354787840E+02  0.00000000000E+00 0.  1.
         -6    2    1    2    0  503  0.35536464157E+02  0.10482039867E+03  0.39136634732E+03  0.44523868267E+03  0.18116211101E+03 0.  0.
        -24    2    3    3    0    0  0.12597794163E+02  0.12096274666E+03  0.17618156226E+03  0.22818260766E+03  0.78972584217E+02 0.  0.
          6    2    1    2  501    0 -0.35536464157E+02 -0.10482039867E+03  0.24035381720E+03  0.31319105753E+03  0.16753663723E+03 0.  0.
         24    2    5    5    0    0 -0.27324050348E+02 -0.18970734498E+01  0.57360120462E+02  0.10302579480E+03  0.81079765413E+02 0.  0.
          5    1    5    5  501    0 -0.82124138093E+01 -0.10292332522E+03  0.18299369674E+03  0.21016526274E+03  0.47000000000E+01 0. -1.
        -13    1    6    6    0    0 -0.84834429463E+01 -0.40160464775E+02  0.38901977284E+02  0.56552591203E+02  0.00000000000E+00 0.  1.
         14    1    6    6    0    0 -0.18840607401E+02  0.38263391325E+02  0.18458143178E+02  0.46473203596E+02  0.00000000000E+00 0. -1.
         -5    1    3    3    0  503  0.22938669994E+02 -0.16142347990E+02  0.21518478506E+03  0.21705607502E+03  0.47000000000E+01 0.  1.
         13    1    4    4    0    0 -0.12341490403E+02 -0.73004909093E+01  0.17913910337E+02  0.22945974297E+02  0.00000000000E+00 0. -1.
        -14    1    4    4    0    0  0.24939284566E+02  0.12826323757E+03  0.15826765193E+03  0.20523663336E+03  0.00000000000E+00 0.  1.
</event>
<event>
12    1  0.8297444E-002  0.2358711E+03  0.7818608E-02  0.1122944E+00
         21   -1    0    0  503  502  0.00000000000E+00  0.00000000000E+00  0.14254368449E+03  0.14254368449E+03  0.00000000000E+00 0.  1.
         21   -1    0    0  501  503 -0.00000000000E+00 -0.00000000000E+00 -0.10842254509E+04  0.10842254509E+04  0.00000000000E+00 0.  1.
          6    2    1    2  501    0  0.19694217873E+02 -0.15895604624E+03 -0.96358652882E+03  0.99203535815E+03  0.17314810552E+03 0.  0.
         24    2    3    3    0    0  0.64099379182E+02 -0.16142277952E+03 -0.81876606127E+03  0.84046702061E+03  0.76425816874E+02 0.  0.
         -6    2    1    2    0  502 -0.19694217873E+02  0.15895604624E+03  0.21904762376E+02  0.23473377727E+03  0.17019177631E+03 0.  0.
        -24    2    5    5    0    0 -0.18969585013E+02  0.17927393512E+02  0.35186810704E+02  0.93001251754E+02  0.82035873778E+02 0.  0.
          5    1    3    3  501    0 -0.44405161310E+02  0.24667332800E+01 -0.14482046755E+03  0.15156833754E+03  0.47000000000E+01 0. -1.
        -13    1    4    4    0    0  0.16139350695E+02 -0.41047735001E+02 -0.39171308693E+03  0.39418845450E+03  0.00000000000E+00 0.  1.
         14    1    4    4    0    0  0.47960028488E+02 -0.12037504451E+03 -0.42705297434E+03  0.44627856611E+03  0.00000000000E+00 0. -1.
         -5    1    5    5    0  502 -0.72463286023E+00  0.14102865272E+03 -0.13282048328E+02  0.14173252552E+03  0.47000000000E+01 0.  1.
         11    1    6    6    0    0  0.27420407678E+01 -0.19739290213E+02  0.44303628867E+02  0.48579521370E+02  0.00000000000E+00 0. -1.
        -12    1    6    6    0    0 -0.21711625780E+02  0.37666683725E+02 -0.91168181629E+01  0.44421730384E+02  0.00000000000E+00 0.  1.
</event>
<event>
12    1  0.8297444E-002  0.2132840E+03  0.7818608E-02  0.1139069E+00
         21   -1    0    0  501  502  0.00000000000E+00  0.00000000000E+00  0.44647994705E+03  0.44647994705E+03  0.00000000000E+00 0. -1.
         21   -1    0    0  502  503 -0.00000000000E+00 -0.00000000000E+00 -0.16606596809E+03  0.16606596809E+03  0.00000000000E+00 0.  1.
         -6    2    1    2    0  503  0.12483001130E+03  0.21645385400E+02 -0.50396212950E+02  0.21915714284E+03  0.17157803050E+03 0.  0.
        -24    2    3    3    0    0  0.10661045592E+02 -0.28676812888E+02 -0.37659022492E+02  0.93653348510E+02  0.80104495639E+02 0.  0.
          6    2    1    2  501    0 -0.12483001130E+03 -0.21645385400E+02  0.33081019191E+03  0.39338877230E+03  0.17107977282E+03 0.  0.
         24    2    5    5    0    0  0.24698040877E+01 -0.28253719779E+02  0.11157906162E+03  0.13974868957E+03  0.79217653525E+02 0.  0.
          5    1    5    5  501    0 -0.12729981539E+03  0.66083343796E+01  0.21923113028E+03  0.25364008273E+03  0.47000000000E+01 0. -1.
        -13    1    6    6    0    0  0.55187450162E+01 -0.14550682942E+02 -0.92521561785E+01  0.18104731829E+02  0.00000000000E+00 0.  1.
         14    1    6    6    0    0 -0.30489409284E+01 -0.13703036838E+02  0.12083121780E+03  0.12164395774E+03  0.00000000000E+00 0. -1.
         -5    1    3    3    0  503  0.11416896571E+03  0.50322198288E+02 -0.12737190458E+02  0.12550379433E+03  0.47000000000E+01 0.  1.
         11    1    4    4    0    0  0.33551249707E+02  0.11831639551E+02 -0.31325618205E+01  0.35713960785E+02  0.00000000000E+00 0. -1.
        -12    1    4    4    0    0 -0.22890204116E+02 -0.40508452439E+02 -0.34526460671E+02  0.57939387725E+02  0.00000000000E+00 0.  1.
</event>
<event>
12    1  0.8297444E-002  0.1775567E+03  0.7818608E-02  0.1172147E+00
         21   -1    0    0  501  502  0.00000000000E+00  0.00000000000E+00  0.10233792400E+03  0.10233792400E+03  0.00000000000E+00 0.  1.
         21   -1    0    0  502  503 -0.00000000000E+00 -0.00000000000E+00 -0.32174870118E+03  0.32174870118E+03  0.00000000000E+00 0.  1.
         -6    2    1    2    0  503 -0.22771175587E+02 -0.54865772367E+02 -0.16887982135E+03  0.23947956963E+03  0.15906379474E+03 0.  0.
        -24    2    3    3    0    0 -0.18845368635E+02 -0.33678146041E+02 -0.25750696265E+02  0.94661187104E+02  0.82512281183E+02 0.  0.
          6    2    1    2  501    0  0.22771175587E+02  0.54865772367E+02 -0.50530955834E+02  0.18460705554E+03  0.16732485782E+03 0.  0.
         24    2    5    5    0    0 -0.46276765842E+02  0.44700642436E+02 -0.45427373051E+02  0.11447086917E+03  0.83067726435E+02 0.  0.
          5    1    5    5  501    0  0.69047941428E+02  0.10165129931E+02 -0.51035827831E+01  0.70136186375E+02  0.47000000000E+01 0. -1.
        -11    1    6    6    0    0  0.14234481240E+02  0.21758540563E+02  0.11359192283E+02  0.28374033780E+02  0.00000000000E+00 0.  1.
         12    1    6    6    0    0 -0.60511247082E+02  0.22942101873E+02 -0.56786565333E+02  0.86096835390E+02  0.00000000000E+00 0. -1.
         -5    1    3    3    0  503 -0.39258069514E+01 -0.21187626327E+02 -0.14312912509E+03  0.14481838253E+03  0.47000000000E+01 0.  1.
         13    1    4    4    0    0 -0.25678867259E+02  0.14474838430E+02  0.13251126134E+02  0.32318996196E+02  0.00000000000E+00 0. -1.
        -14    1    4    4    0    0  0.68334986238E+01 -0.48152984471E+02 -0.39001822399E+02  0.62342190909E+02  0.00000000000E+00 0.  1.
</event>
<event>
12    1  0.8297444E-002  0.1777065E+03  0.7818608E-02  0.1170251E+00
         21   -1    0    0  503  502  0.00000000000E+00  0.00000000000E+00  0.32650358581E+03  0.32650358581E+03  0.00000000000E+00 0.  1.
         21   -1    0    0  501  503 -0.00000000000E+00 -0.00000000000E+00 -0.96463760450E+02  0.96463760450E+02  0.00000000000E+00 0. -1.
          6    2    1    2  501    0  0.40900246397E+02 -0.10270431908E+02  0.12505469133E+03  0.21729768349E+03  0.17263051730E+03 0.  0.
         24    2    3    3    0    0 -0.87272139446E+01  0.25556348170E+02  0.75348250364E+01  0.84710157822E+02  0.79935887152E+02 0.  0.
         -6    2    1    2    0  502 -0.40900246397E+02  0.10270431908E+02  0.10498513404E+03  0.20566966277E+03  0.17175511605E+03 0.  0.
        -24    2    5    5    0    0 -0.62371252081E+02 -0.45717462639E+02  0.90135278136E+02  0.14371599749E+03  0.80929970311E+02 0.  0.
          5    1    3    3  501    0  0.49627460341E+02 -0.35826780078E+02  0.11751986629E+03  0.13258752567E+03  0.47000000000E+01 0. -1.
        -11    1    4    4    0    0  0.28687360223E+02  0.39431538354E+00 -0.17030422018E+02  0.33363983505E+02  0.00000000000E+00 0.  1.
         12    1    4    4    0    0 -0.37414574168E+02  0.25162032786E+02  0.24565247055E+02  0.51346174317E+02  0.00000000000E+00 0. -1.
         -5    1    5    5    0  502  0.21471005685E+02  0.55987894547E+02  0.14849855900E+02  0.61953665276E+02  0.47000000000E+01 0.  1.
         11    1    6    6    0    0 -0.61109801493E+02  0.15688672325E+01  0.32758235890E+02  0.69353955919E+02  0.00000000000E+00 0. -1.
        -12    1    6    6    0    0 -0.12614505882E+01 -0.47286329871E+02  0.57377042246E+02  0.74362041575E+02  0.00000000000E+00 0.  1.
</event>
<event>
12    1  0.8297444E-002  0.2056717E+03  0.7818608E-02  0.1145068E+00
         21   -1    0    0  501  502  0.00000000000E+00  0.00000000000E+00  0.88406641004E+03  0.88406641004E+03  0.00000000000E+00 0. -1.
         21   -1    0    0  502  503 -0.00000000000E+00 -0.00000000000E+00 -0.89381840296E+02  0.89381840296E+02  0.00000000000E+00 0.  1.
         -6    2    1    2    0  503  0.48047456516E+02 -0.10120061187E+03  0.65355004867E+02  0.21567357049E+03  0.17231857250E+03 0.  0.
        -24    2    3    3    0    0 -0.34303842734E+02 -0.27890749932E+02  0.22914810078E+02  0.97439343302E+02  0.83753743463E+02 0.  0.
          6    2    1    2  501    0 -0.48047456516E+02  0.10120061187E+03  0.72932956488E+03  0.75777467985E+03  0.17248399721E+03 0.  0.
         24    2    5    5    0    0  0.14009156184E+02  0.20271075149E+02  0.16797938669E+03  0.18721642196E+03  0.78903367189E+02 0.  0.
          5    1    5    5  501    0 -0.62056612700E+02  0.80929536717E+02  0.56135017819E+03  0.57055825789E+03  0.47000000000E+01 0. -1.
        -11    1    6    6    0    0 -0.31063314834E+02  0.16557984493E+02  0.52616730781E+02  0.63305740158E+02  0.00000000000E+00 0.  1.
         12    1    6    6    0    0  0.45072471018E+02  0.37130906567E+01  0.11536265591E+03  0.12391068180E+03  0.00000000000E+00 0. -1.
         -5    1    3    3    0  503  0.82351299250E+02 -0.73309861935E+02  0.42440194789E+02  0.11823422719E+03  0.47000000000E+01 0.  1.
         11    1    4    4    0    0 -0.59074757342E+01  0.29548030059E+02  0.27094449854E+01  0.30254345838E+02  0.00000000000E+00 0. -1.
        -12    1    4    4    0    0 -0.28396367000E+02 -0.57438779991E+02  0.20205365093E+02  0.67184997464E+02  0.00000000000E+00 0.  1.
</event>
<event>
12    1  0.8297444E-002  0.1844152E+03  0.7818608E-02  0.1163765E+00
         21   -1    0    0  501  502  0.00000000000E+00  0.00000000000E+00  0.26320140291E+04  0.26320140291E+04  0.00000000000E+00 0. -1.
         21   -1    0    0  502  503 -0.00000000000E+00 -0.00000000000E+00 -0.45046858910E+02  0.45046858910E+02  0.00000000000E+00 0. -1.
         -6    2    1    2    0  503 -0.24444891155E+02 -0.58961731913E+02  0.16151756847E+03  0.24461052869E+03  0.17225663206E+03 0.  0.
        -24    2    3    3    0    0 -0.78632085161E+02 -0.11007330530E+02  0.12126765289E+03  0.16167668572E+03  0.71619417238E+02 0.  0.
          6    2    1    2  501    0  0.24444891155E+02  0.58961731913E+02  0.24254496018E+04  0.24324503594E+04  0.17301717113E+03 0.  0.
         24    2    5    5    0    0 -0.35517391324E+02  0.57081571610E+02  0.11012526198E+04  0.11068868009E+04  0.89001497776E+02 0.  0.
          5    1    5    5  501    0  0.59962282479E+02  0.18801603035E+01  0.13241969820E+04  0.13255635584E+04  0.47000000000E+01 0. -1.
        -13    1    6    6    0    0 -0.34545417648E+02 -0.14434368399E+02  0.27363523480E+03  0.27618468204E+03  0.00000000000E+00 0.  1.
         14    1    6    6    0    0 -0.97197367554E+00  0.71515940009E+02  0.82761738497E+03  0.83070211888E+03  0.00000000000E+00 0. -1.
         -5    1    3    3    0  503  0.54187194006E+02 -0.47954401384E+02  0.40249915574E+02  0.82933842972E+02  0.47000000000E+01 0.  1.
         11    1    4    4    0    0 -0.68038976840E+02 -0.11775092602E+02  0.40166535121E+02  0.79883075297E+02  0.00000000000E+00 0. -1.
        -12    1    4    4    0    0 -0.10593108321E+02  0.76776207199E+00  0.81101117771E+02  0.81793610424E+02  0.00000000000E+00 0.  1.
</event>
<event>
12    1  0.8297444E-002  0.2255939E+03  0.7818608E-02  0.1129807E+00
         21   -1    0    0  501  502  0.00000000000E+00  0.00000000000E+00  0.88099015390E+02  0.88099015390E+02  0.00000000000E+00 0. -1.
         21   -1    0    0  502  503 -0.00000000000E+00 -0.00000000000E+00 -0.78384170989E+03  0.78384170989E+03  0.00000000000E+00 0. -1.
         -6    2    1    2    0  503 -0.90629845339E+02 -0.11448105000E+03 -0.57175592962E+03  0.61465228900E+03  0.17196776919E+03 0.  0.
        -24    2    3    3    0    0 -0.40450755127E+02 -0.12782261557E+03 -0.51207117204E+03  0.53540395303E+03  0.80409098024E+02 0.  0.
          6    2    1    2  501    0  0.90629845339E+02  0.11448105000E+03 -0.12398676488E+03  0.25728843628E+03  0.17177002621E+03 0.  0.
         24    2    5    5    0    0 -0.21139279170E+01  0.93783014796E+02 -0.10197595280E+03  0.15963403552E+03  0.79272995353E+02 0.  0.
          5    1    5    5  501    0  0.92743773256E+02  0.20698035205E+02 -0.22010812082E+02  0.97654400760E+02  0.47000000000E+01 0. -1.
        -11    1    6    6    0    0  0.39348721349E+00 -0.95408190008E+01 -0.35465740546E+02  0.36728746396E+02  0.00000000000E+00 0.  1.
         12    1    6    6    0    0 -0.25074151305E+01  0.10332383380E+03 -0.66510212257E+02  0.12290528913E+03  0.00000000000E+00 0. -1.
         -5    1    3    3    0  503 -0.50179090213E+02  0.13341565570E+02 -0.59684757578E+02  0.79248335967E+02  0.47000000000E+01 0.  1.
         13    1    4    4    0    0 -0.13744316011E+01 -0.56676324563E+02 -0.34535425841E+03  0.34997665441E+03  0.00000000000E+00 0. -1.
        -14    1    4    4    0    0 -0.39076323526E+02 -0.71146291008E+02 -0.16671691363E+03  0.18542729862E+03  0.00000000000E+00 0.  1.
</event>
<event>
12    1  0.8297444E-002  0.3524431E+03  0.7818608E-02  0.1061699E+00
         21   -1    0    0  501  502  0.00000000000E+00  0.00000000000E+00  0.29687928884E+03  0.29687928884E+03  0.00000000000E+00 0. -1.
         21   -1    0    0  502  503 -0.00000000000E+00 -0.00000000000E+00 -0.41909366709E+03  0.41909366709E+03  0.00000000000E+00 0.  1.
         -6    2    1    2    0  503  0.10154538967E+03 -0.29003285449E+03 -0.83509229871E+02  0.36141094664E+03  0.17091974148E+03 0.  0.
        -24    2    3    3    0    0  0.12930658508E+03 -0.20294451292E+03 -0.49421336221E+02  0.26374243737E+03  0.95973624136E+02 0.  0.
          6    2    1    2  501    0 -0.10154538967E+03  0.29003285449E+03 -0.38705148383E+02  0.35456200930E+03  0.17258507200E+03 0.  0.
         24    2    5    5    0    0 -0.35018146779E+02  0.26586790210E+03 -0.15436151024E+02  0.27990710183E+03  0.78725465529E+02 0.  0.
          5    1    5    5  501    0 -0.66527242893E+02  0.24164952389E+02 -0.23268997359E+02  0.74654907468E+02  0.47000000000E+01 0. -1.
        -13    1    6    6    0    0 -0.52038682025E+02  0.16418497999E+03 -0.32878048175E+02  0.17534451270E+03  0.00000000000E+00 0.  1.
         14    1    6    6    0    0  0.17020535246E+02  0.10168292211E+03  0.17441897152E+02  0.10456258913E+03  0.00000000000E+00 0. -1.
         -5    1    3    3    0  503 -0.27761195404E+02 -0.87088341573E+02 -0.34087893650E+02  0.97668509263E+02  0.47000000000E+01 0.  1.
         13    1    4    4    0    0  0.60118095110E+02 -0.85835284025E+02  0.26328902323E+02  0.10805134169E+03  0.00000000000E+00 0. -1.
        -14    1    4    4    0    0  0.69188489966E+02 -0.11710922890E+03 -0.75750238543E+02  0.15569109569E+03  0.00000000000E+00 0.  1.
</event>
<event>
12    1  0.8297444E-002  0.1763580E+03  0.7818608E-02  0.1171907E+00
         21   -1    0    0  503  502  0.00000000000E+00  0.00000000000E+00  0.23302260700E+03  0.23302260700E+03  0.00000000000E+00 0. -1.
         21   -1    0    0  501  503 -0.00000000000E+00 -0.00000000000E+00 -0.16484718149E+03  0.16484718149E+03  0.00000000000E+00 0. -1.
          6    2    1    2  501    0 -0.10884641057E+02 -0.39059539853E+02 -0.55054392254E+02  0.18272394230E+03  0.16944890061E+03 0.  0.
         24    2    3    3    0    0 -0.69260886924E+02 -0.30344704778E+02 -0.14392204066E+02  0.11089610661E+03  0.79830691828E+02 0.  0.
         -6    2    1    2    0  502  0.10884641057E+02  0.39059539853E+02  0.12322981776E+03  0.21514584619E+03  0.17163340025E+03 0.  0.
        -24    2    5    5    0    0  0.44393929909E+02  0.33840003299E+02  0.14595476826E+03  0.17405291034E+03  0.76652817205E+02 0.  0.
          5    1    3    3  501    0  0.58376245867E+02 -0.87148350748E+01 -0.40662188188E+02  0.71827835692E+02  0.47000000000E+01 0. -1.
        -13    1    4    4    0    0 -0.79323510172E+02 -0.44803156047E+02 -0.57717016526E+01  0.91284470737E+02  0.00000000000E+00 0.  1.
         14    1    4    4    0    0  0.10062623248E+02  0.14458451269E+02 -0.86205024136E+01  0.19611635872E+02  0.00000000000E+00 0. -1.
         -5    1    5    5    0  502 -0.33509288852E+02  0.52195365540E+01 -0.22724950495E+02  0.41092935843E+02  0.47000000000E+01 0.  1.
         13    1    6    6    0    0 -0.77981187138E+01  0.40891962136E+02  0.55413192386E+02  0.69307900799E+02  0.00000000000E+00 0. -1.
        -14    1    6    6    0    0  0.52192048623E+02 -0.70519588369E+01  0.90541575871E+02  0.10474500954E+03  0.00000000000E+00 0.  1.
</event>
<event>
12    1  0.8297444E-002  0.2188034E+03  0.7818608E-02  0.1135731E+00
         21   -1    0    0  503  502  0.00000000000E+00  0.00000000000E+00  0.21882809781E+03  0.21882809781E+03  0.00000000000E+00 0. -1.
         21   -1    0    0  501  503 -0.00000000000E+00 -0.00000000000E+00 -0.21500611071E+03  0.21500611071E+03  0.00000000000E+00 0. -1.
          6    2    1    2  501    0 -0.12314909335E+03 -0.40955915083E+02 -0.14397714186E+02  0.21427350191E+03  0.16989041549E+03 0.  0.
         24    2    3    3    0    0 -0.24286057239E+02 -0.61294766784E+02  0.27656673870E+02  0.10482839991E+03  0.76663164600E+02 0.  0.
         -6    2    1    2    0  502  0.12314909335E+03  0.40955915083E+02  0.18219701293E+02  0.21956070661E+03  0.17615862227E+03 0.  0.
        -24    2    5    5    0    0  0.69939695630E+02 -0.32318416180E+02  0.51797454537E+02  0.12286570601E+03  0.80479589761E+02 0.  0.
          5    1    3    3  501    0 -0.98863036109E+02  0.20338851701E+02 -0.42054388057E+02  0.10944510200E+03  0.47000000000E+01 0. -1.
        -13    1    4    4    0    0 -0.49371930763E+02 -0.56488602752E+02  0.25313334701E+02  0.79179004173E+02  0.00000000000E+00 0.  1.
         14    1    4    4    0    0  0.25085873524E+02 -0.48061640321E+01  0.23433391691E+01  0.25649395736E+02  0.00000000000E+00 0. -1.
         -5    1    5    5    0  502  0.53209397719E+02  0.73274331264E+02 -0.33577753244E+02  0.96695000598E+02  0.47000000000E+01 0.  1.
         13    1    6    6    0    0  0.47972792743E+02  0.70150363398E+01  0.59930065647E+02  0.77085746717E+02  0.00000000000E+00 0. -1.
        -14    1    6    6    0    0  0.21966902887E+02 -0.39333452520E+02 -0.81326111105E+01  0.45779959295E+02  0.00000000000E+00 0.  1.
</event>
<event>
12    1  0.8297444E-002  0.2072640E+03  0.7818608E-02  0.1143782E+00
         21   -1    0    0  501  502  0.00000000000E+00  0.00000000000E+00  0.12053955419E+04  0.12053955419E+04  0.00000000000E+00 0. -1.
         21   -1    0    0  502  503 -0.00000000000E+00 -0.00000000000E+00 -0.43764935854E+02  0.43764935854E+02  0.00000000000E+00 0.  1.
         -6    2    1    2    0  503 -0.49872587392E+02 -0.10395711036E+03  0.31106279956E+03  0.37370404556E+03  0.17204735577E+03 0.  0.
        -24    2    3    3    0    0 -0.89508822877E+02 -0.10371532898E+03  0.19747653896E+03  0.25330878727E+03  0.79997871404E+02 0.  0.
          6    2    1    2  501    0  0.49872587392E+02  0.10395711036E+03  0.85056780647E+03  0.87545643218E+03  0.17223244606E+03 0.  0.
         24    2    5    5    0    0  0.59289138990E+01 -0.58841179986E+01  0.47440964817E+03  0.48110482264E+03  0.79545969305E+02 0.  0.
          5    1    5    5  501    0  0.43943673493E+02  0.10984122836E+03  0.37615815830E+03  0.39435160954E+03  0.47000000000E+01 0. -1.
        -11    1    6    6    0    0 -0.25356260180E+02 -0.29390677151E+02  0.18238551146E+03  0.18647044437E+03  0.00000000000E+00 0.  1.
         12    1    6    6    0    0  0.31285174078E+02  0.23506559153E+02  0.29202413671E+03  0.29463437827E+03  0.00000000000E+00 0. -1.
         -5    1    3    3    0  503  0.39636235485E+02 -0.24178137797E+00  0.11358626060E+03  0.12039525829E+03  0.47000000000E+01 0.  1.
         11    1    4    4    0    0 -0.45798636946E+02 -0.40823160322E+02  0.15276227047E+03  0.16462186016E+03  0.00000000000E+00 0. -1.
        -12    1    4    4    0    0 -0.43710185931E+02 -0.62892168657E+02  0.44714268492E+02  0.88686927105E+02  0.00000000000E+00 0.  1.
</event>
<event>
12    1  0.8297444E-002  0.1822225E+03  0.7818608E-02  0.1166262E+00
         21   -1    0    0  503  502  0.00000000000E+00  0.00000000000E+00  0.15227476384E+03  0.15227476384E+03  0.00000000000E+00 0. -1.
         21   -1    0    0  501  503 -0.00000000000E+00 -0.00000000000E+00 -0.29937367801E+03  0.29937367801E+03  0.00000000000E+00 0. -1.
          6    2    1    2  501    0  0.24448137163E+02  0.54214758686E+02 -0.19299296308E+03  0.26373538906E+03  0.16962641355E+03 0.  0.
         24    2    3    3    0    0  0.30368613682E+02  0.46452954827E+02 -0.21646868925E+03  0.23788007316E+03  0.81535918880E+02 0.  0.
         -6    2    1    2    0  502 -0.24448137163E+02 -0.54214758686E+02  0.45894048921E+02  0.18791305279E+03  0.17224430386E+03 0.  0.
        -24    2    5    5    0    0  0.19080901789E+02  0.11059726883E+02 -0.23279936580E+02  0.83210302256E+02  0.76782814370E+02 0.  0.
          5    1    3    3  501    0 -0.59204765187E+01  0.77618038595E+01  0.23475726172E+02  0.25855315908E+02  0.47000000000E+01 0. -1.
        -13    1    4    4    0    0 -0.27574491275E+02  0.81851604577E+01 -0.73884844530E+02  0.79286314531E+02  0.00000000000E+00 0.  1.
         14    1    4    4    0    0  0.57943104957E+02  0.38267794369E+02 -0.14258384472E+03  0.15859375862E+03  0.00000000000E+00 0. -1.
         -5    1    5    5    0  502 -0.43529038952E+02 -0.65274485569E+02  0.69173985501E+02  0.10470275053E+03  0.47000000000E+01 0.  1.
         13    1    6    6    0    0  0.24965073708E+01 -0.11795925069E+02  0.24729207918E+02  0.27511999591E+02  0.00000000000E+00 0. -1.
        -14    1    6    6    0    0  0.16584394418E+02  0.22855651952E+02 -0.48009144498E+02  0.55698302665E+02  0.00000000000E+00 0.  1.
</event>
<event>
12    1  0.8297444E-002  0.1713184E+03  0.7818608E-02  0.1176544E+00
         21   -1    0    0  501  502  0.00000000000E+00  0.00000000000E+00  0.17647148425E+03  0.17647148425E+03  0.00000000000E+00 0.  1.
         21   -1    0    0  502  503 -0.00000000000E+00 -0.00000000000E+00 -0.27074863715E+03  0.27074863715E+03  0.00000000000E+00 0.  1.
         -6    2    1    2    0  503  0.10405375465E+02  0.52602667064E+01  0.91917120476E+02  0.19420171638E+03  0.17067397975E+03 0.  0.
        -24    2    3    3    0    0 -0.25280109329E+02  0.28104141805E+02 -0.49103539634E+01  0.88404994968E+02  0.79764684196E+02 0.  0.
          6    2    1    2  501    0 -0.10405375465E+02 -0.52602667064E+01 -0.18619427337E+03  0.25301840502E+03  0.17092122044E+03 0.  0.
         24    2    5    5    0    0  0.33113103204E+02  0.47961762198E+02 -0.80050252163E+02  0.12646768165E+03  0.78671617460E+02 0.  0.
          5    1    5    5  501    0 -0.43518478669E+02 -0.53222028904E+02 -0.10614402121E+03  0.12655072337E+03  0.47000000000E+01 0. -1.
        -11    1    6    6    0    0 -0.67556165594E+01  0.50170519309E+02 -0.67970017975E+02  0.84750473192E+02  0.00000000000E+00 0.  1.
         12    1    6    6    0    0  0.39868719764E+02 -0.22087571107E+01 -0.12080234189E+02  0.41717208459E+02  0.00000000000E+00 0. -1.
         -5    1    3    3    0  503  0.35685484794E+02 -0.22843875099E+02  0.96827474439E+02  0.10579672141E+03  0.47000000000E+01 0.  1.
         13    1    4    4    0    0 -0.23232338078E+02  0.55744780807E+02 -0.58328408771E+01  0.60673257308E+02  0.00000000000E+00 0. -1.
        -14    1    4    4    0    0 -0.20477712517E+01 -0.27640639001E+02  0.92248691372E+00  0.27731737659E+02  0.00000000000E+00 0.  1.
</event>
<event>
12    1  0.8297444E-002  0.1954325E+03  0.7818608E-02  0.1153679E+00
         21   -1    0    0  503  502  0.00000000000E+00  0.00000000000E+00  0.47844495267E+03  0.47844495267E+03  0.00000000000E+00 0.  1.
         21   -1    0    0  501  503 -0.00000000000E+00 -0.00000000000E+00 -0.89828982960E+02  0.89828982960E+02  0.00000000000E+00 0. -1.
          6    2    1    2  501    0 -0.79537735178E+02  0.49371095026E+02  0.99195156832E+02  0.21904868028E+03  0.17140270958E+03 0.  0.
         24    2    3    3    0    0 -0.15688341101E+02 -0.22760738607E+02  0.85147905708E+02  0.12158503675E+03  0.82271380476E+02 0.  0.
         -6    2    1    2    0  502  0.79537735178E+02 -0.49371095026E+02  0.28942081287E+03  0.34922525534E+03  0.17155207869E+03 0.  0.
        -24    2    5    5    0    0 -0.22583700621E+02 -0.14238509741E+02  0.11262088252E+03  0.14199738180E+03  0.82261987372E+02 0.  0.
          5    1    3    3  501    0 -0.63849394077E+02  0.72131833633E+02  0.14047251124E+02  0.97463643537E+02  0.47000000000E+01 0. -1.
        -13    1    4    4    0    0  0.71119232213E+01  0.28201338691E+02  0.41701506201E+02  0.50842015846E+02  0.00000000000E+00 0.  1.
         14    1    4    4    0    0 -0.22800264322E+02 -0.50962077299E+02  0.43446399507E+02  0.70743020899E+02  0.00000000000E+00 0. -1.
         -5    1    5    5    0  502  0.10212143580E+03 -0.35132585285E+02  0.17679993036E+03  0.20722787354E+03  0.47000000000E+01 0.  1.
         11    1    6    6    0    0  0.30409424080E+02 -0.12150915981E+02  0.34418524715E+02  0.47508027486E+02  0.00000000000E+00 0. -1.
        -12    1    6    6    0    0 -0.52993124701E+02 -0.20875937599E+01  0.78202357801E+02  0.94489354315E+02  0.00000000000E+00 0.  1.
</event>
<event>
12    1  0.8297444E-002  0.2204535E+03  0.7818608E-02  0.1133740E+00
         21   -1    0    0  503  502  0.00000000000E+00  0.00000000000E+00  0.86315435138E+02  0.86315435138E+02  0.00000000000E+00 0.  1.
         21   -1    0    0  501  503 -0.00000000000E+00 -0.00000000000E+00 -0.10182124522E+04  0.10182124522E+04  0.00000000000E+00 0.  1.
          6    2    1    2  501    0  0.11332996275E+03  0.79559751836E+02 -0.95021487988E+02  0.23910290128E+03  0.17019894139E+03 0.  0.
         24    2    3    3    0    0  0.11587363267E+03  0.47566756209E+02 -0.93739939197E+01  0.14751903116E+03  0.77360828244E+02 0.  0.
         -6    2    1    2    0  502 -0.11332996275E+03 -0.79559751836E+02 -0.83687552904E+03  0.86542498603E+03  0.17154101773E+03 0.  0.
        -24    2    5    5    0    0 -0.11361034297E+02 -0.30170261499E+02 -0.18290157451E+03  0.20169235361E+03  0.78660674857E+02 0.  0.
          5    1    3    3  501    0 -0.25436699282E+01  0.31992995627E+02 -0.85647494068E+02  0.91583870119E+02  0.47000000000E+01 0. -1.
        -13    1    4    4    0    0  0.79580422341E+02  0.68133517478E+02 -0.13370526878E+02  0.10561245577E+03  0.00000000000E+00 0.  1.
         14    1    4    4    0    0  0.36293210333E+02 -0.20566761270E+02  0.39965329588E+01  0.41906575392E+02  0.00000000000E+00 0. -1.
         -5    1    5    5    0  502 -0.10196892845E+03 -0.49389490337E+02 -0.65397395453E+03  0.66373263242E+03  0.47000000000E+01 0.  1.
         11    1    6    6    0    0 -0.11960941524E+02  0.23813118332E+02 -0.93796094351E+02  0.97508133211E+02  0.00000000000E+00 0. -1.
        -12    1    6    6    0    0  0.59990722748E+00 -0.53983379831E+02 -0.89105480159E+02  0.10418422040E+03  0.00000000000E+00 0.  1.
</event>
<event>
12    1  0.8297444E-002  0.1971715E+03  0.7818608E-02  0.1152157E+00
         21   -1    0    0  501  502  0.00000000000E+00  0.00000000000E+00  0.85656564443E+03  0.85656564443E+03  0.00000000000E+00 0.  1.
         21   -1    0    0  502  503 -0.00000000000E+00 -0.00000000000E+00 -0.46904571073E+02  0.46904571073E+02  0.00000000000E+00 0.  1.
         -6    2    1    2    0  503 -0.96950688271E+02  0.82519942110E+01  0.32333142094E+03  0.37870807221E+03  0.17149071353E+03 0.  0.
        -24    2    3    3    0    0 -0.25537951408E+02 -0.23932355225E+02  0.27077811080E+03  0.28426469372E+03  0.79124498215E+02 0.  0.
          6    2    1    2  501    0  0.96950688271E+02 -0.82519942110E+01  0.48632965241E+03  0.52476214329E+03  0.17143874955E+03 0.  0.
         24    2    5    5    0    0  0.12216744956E+03 -0.41809365374E+02  0.33349651476E+03  0.36619972601E+03  0.78799779216E+02 0.  0.
          5    1    5    5  501    0 -0.25216761288E+02  0.33557371163E+02  0.15283313765E+03  0.15856241728E+03  0.47000000000E+01 0. -1.
        -13    1    6    6    0    0  0.61692594575E+02 -0.27623740772E+02  0.77782210070E+02  0.10304911200E+03  0.00000000000E+00 0.  1.
         14    1    6    6    0    0  0.60474854984E+02 -0.14185624602E+02  0.25571430469E+03  0.26315061401E+03  0.00000000000E+00 0. -1.
         -5    1    3    3    0  503 -0.71412736864E+02  0.32184349436E+02  0.52553310143E+02  0.94443378497E+02  0.47000000000E+01 0.  1.
         13    1    4    4    0    0  0.57995720216E+01 -0.22021150235E+02  0.16662834772E+02  0.28217302421E+02  0.00000000000E+00 0. -1.
        -14    1    4    4    0    0 -0.31337523429E+02 -0.19112049901E+01  0.25411527603E+03  0.25604739129E+03  0.00000000000E+00 0.  1.
</event>
<event>
12    1  0.8297444E-002  0.1993109E+03  0.7818608E-02  0.1150408E+00
         21   -1    0    0  501  502  0.00000000000E+00  0.00000000000E+00  0.26712393481E+04  0.26712393481E+04  0.00000000000E+00 0.  1.
         21   -1    0    0  502  503 -0.00000000000E+00 -0.00000000000E+00 -0.15248128019E+02  0.15248128019E+02  0.00000000000E+00 0. -1.
         -6    2    1    2    0  503  0.92813044107E+02 -0.39827437166E+02  0.11097905748E+04  0.11275459951E+04  0.17182655571E+03 0.  0.
        -24    2    3    3    0    0  0.88831680774E+02  0.12188035559E+02  0.98259139407E+03  0.98998443712E+03  0.80893277306E+02 0.  0.
          6    2    1    2  501    0 -0.92813044107E+02  0.39827437166E+02  0.15462006452E+04  0.15589414810E+04  0.17135232669E+03 0.  0.
         24    2    5    5    0    0 -0.12044107614E+03  0.44214799674E+02  0.93654493273E+03  0.94862620598E+03  0.79462357820E+02 0.  0.
          5    1    5    5  501    0  0.27628032030E+02 -0.43873625083E+01  0.60965571252E+03  0.61031527501E+03  0.47000000000E+01 0. -1.
        -11    1    6    6    0    0 -0.11923354224E+03  0.21155416842E+02  0.86530868382E+03  0.87374098425E+03  0.00000000000E+00 0.  1.
         12    1    6    6    0    0 -0.12075338959E+01  0.23059382832E+02  0.71236248909E+02  0.74885221729E+02  0.00000000000E+00 0. -1.
         -5    1    3    3    0  503  0.39813633326E+01 -0.52015472725E+02  0.12719918073E+03  0.13756155798E+03  0.47000000000E+01 0.  1.
         13    1    4    4    0    0  0.34143214433E+02 -0.22801124090E+02  0.63869836496E+03  0.64001660272E+03  0.00000000000E+00 0. -1.
        -14    1    4    4    0    0  0.54688466342E+02  0.34989159649E+02  0.34389302911E+03  0.34996783440E+03  0.00000000000E+00 0.  1.
</event>
<event>
12    1  0.8297444E-002  0.2316289E+03  0.7818608E-02  0.1125690E+00
         21   -1    0    0  501  502  0.00000000000E+00  0.00000000000E+00  0.30650320518E+03  0.30650320518E+03  0.00000000000E+00 0. -1.
         21   -1    0    0  502  503 -0.00000000000E+00 -0.00000000000E+00 -0.26517716485E+03  0.26517716485E+03  0.00000000000E+00 0. -1.
         -6    2    1    2    0  503  0.15436946187E+03 -0.14011421210E+02 -0.14671437556E+03  0.27418433052E+03  0.17212114462E+03 0.  0.
        -24    2    3    3    0    0  0.29200451672E+02 -0.44941938909E+02 -0.25312604403E+02  0.97027738547E+02  0.76819332561E+02 0.  0.
          6    2    1    2  501    0 -0.15436946187E+03  0.14011421210E+02  0.18804041589E+03  0.29749603951E+03  0.17064127530E+03 0.  0.
         24    2    5    5    0    0 -0.21342610499E+02 -0.44057460794E+01  0.12515220928E+03  0.14913043781E+03  0.78114623297E+02 0.  0.
          5    1    5    5  501    0 -0.13302685137E+03  0.18417167289E+02  0.62888206609E+02  0.14836560170E+03  0.47000000000E+01 0. -1.
        -13    1    6    6    0    0 -0.15327448462E+02 -0.12754559996E+02 -0.33476744469E+01  0.20219208720E+02  0.00000000000E+00 0.  1.
         14    1    6    6    0    0 -0.60151620372E+01  0.83488139164E+01  0.12849988373E+03  0.12891122909E+03  0.00000000000E+00 0. -1.
         -5    1    3    3    0  503  0.12516901020E+03  0.30930517700E+02 -0.12140177116E+03  0.17715659198E+03  0.47000000000E+01 0.  1.
         13    1    4    4    0    0  0.30021397906E+02 -0.65800283048E+02 -0.23620600185E+02  0.76084783856E+02  0.00000000000E+00 0. -1.
        -14    1    4    4    0    0 -0.82094623338E+00  0.20858344138E+02 -0.16920042179E+01  0.20942954691E+02  0.00000000000E+00 0.  1.
</event>
<event>
12    1  0.8297444E-002  0.1865472E+03  0.7818608E-02  0.1161825E+00
         21   -1    0    0  503  502  0.00000000000E+00  0.00000000000E+00  0.59895086423E+02  0.59895086423E+02  0.00000000000E+00 0.  1.
         21   -1    0    0  501  503 -0.00000000000E+00 -0.00000000000E+00 -0.75352427166E+03  0.75352427166E+03  0.00000000000E+00 0.  1.
          6    2    1    2  501    0 -0.71021466634E+02 -0.18664870994E+02 -0.54236178204E+03  0.57324926753E+03  0.17048751853E+03 0.  0.
         24    2    3    3    0    0 -0.34602829797E+02 -0.20192381575E+02 -0.52469601289E+03  0.53247158004E+03  0.81332585753E+02 0.  0.
         -6    2    1    2    0  502  0.71021466634E+02  0.18664870994E+02 -0.15126740320E+03  0.24017009055E+03  0.17148591486E+03 0.  0.
        -24    2    5    5    0    0 -0.25009106930E+02  0.17730217728E+02 -0.51850345142E+02  0.10186395885E+03  0.82146161019E+02 0.  0.
          5    1    3    3  501    0 -0.36418636837E+02  0.15275105811E+01 -0.17665769158E+02  0.40777687497E+02  0.47000000000E+01 0. -1.
        -13    1    4    4    0    0 -0.36526070702E+02 -0.66208784129E+01 -0.87346592863E+02  0.94907413602E+02  0.00000000000E+00 0.  1.
         14    1    4    4    0    0  0.19232409047E+01 -0.13571503162E+02 -0.43734942002E+03  0.43756416644E+03  0.00000000000E+00 0. -1.
         -5    1    5    5    0  502  0.96030573564E+02  0.93465326603E+00 -0.99417058053E+02  0.13830613171E+03  0.47000000000E+01 0.  1.
         13    1    6    6    0    0 -0.19105362289E+02  0.50483571477E+02 -0.36860412330E+02  0.65362801764E+02  0.00000000000E+00 0. -1.
        -14    1    6    6    0    0 -0.59037446410E+01 -0.32753353749E+02 -0.14989932812E+02  0.36501157081E+02  0.00000000000E+00 0.  1.
</event>
<event>
12    1  0.8297444E-002  0.2167088E+03  0.7818608E-02  0.1136863E+00
         21   -1    0    0  503  502  0.00000000000E+00  0.00000000000E+00  0.58262920656E+03  0.58262920656E+03  0.00000000000E+00 0. -1.
         21   -1    0    0  501  503 -0.00000000000E+00 -0.00000000000E+00 -0.82232414582E+02  0.82232414582E+02  0.00000000000E+00 0. -1.
          6    2    1    2  501    0  0.10194149733E+03 -0.82162751167E+02  0.30783487229E+03  0.37496025110E+03  0.16938150651E+03 0.  0.
         24    2    3    3    0    0  0.62756613019E+02 -0.12138555732E+03  0.22050392286E+03  0.27140993284E+03  0.79803042838E+02 0.  0.
         -6    2    1    2    0  502 -0.10194149733E+03  0.82162751167E+02  0.19256191968E+03  0.28990137004E+03  0.17268446625E+03 0.  0.
        -24    2    5    5    0    0 -0.11092935923E+03  0.66158782424E+01  0.14483154449E+03  0.19996589102E+03  0.81615493078E+02 0.  0.
          5    1    3    3  501    0  0.39184884309E+02  0.39222806158E+02  0.87330949437E+02  0.10355031826E+03  0.47000000000E+01 0. -1.
        -11    1    4    4    0    0 -0.46495909561E+01 -0.66939574377E+02  0.12888952611E+03  0.14531013473E+03  0.00000000000E+00 0.  1.
         12    1    4    4    0    0  0.67406203975E+02 -0.54445982948E+02  0.91614396747E+02  0.12609979812E+03  0.00000000000E+00 0. -1.
         -5    1    5    5    0  502  0.89878618987E+01  0.75546872925E+02  0.47730375197E+02  0.89935479021E+02  0.47000000000E+01 0.  1.
         13    1    6    6    0    0 -0.68480914466E+02 -0.67025583745E+01  0.13899738561E+03  0.15509620609E+03  0.00000000000E+00 0. -1.
        -14    1    6    6    0    0 -0.42448444760E+02  0.13318436617E+02  0.58341588734E+01  0.44869684936E+02  0.00000000000E+00 0.  1.
</event>
<event>
12    1  0.8297444E-002  0.2505389E+03  0.7818608E-02  0.1112978E+00
         21   -1    0    0  503  502  0.00000000000E+00  0.00000000000E+00  0.40120775172E+02  0.40120775172E+02  0.00000000000E+00 0. -1.
         21   -1    0    0  501  503 -0.00000000000E+00 -0.00000000000E+00 -0.15862527307E+04  0.15862527307E+04  0.00000000000E+00 0. -1.
          6    2    1    2  501    0 -0.16761076374E+03 -0.71486472113E+02 -0.67657387340E+03  0.72144200640E+03  0.17182164771E+03 0.  0.
         24    2    3    3    0    0 -0.19334776820E+03 -0.69968876798E+02 -0.63924326848E+03  0.67583103670E+03  0.76397844716E+02 0.  0.
         -6    2    1    2    0  502  0.16761076374E+03  0.71486472113E+02 -0.86955808213E+03  0.90493149947E+03  0.17194788954E+03 0.  0.
        -24    2    5    5    0    0  0.16458458140E+03  0.10056131872E+03 -0.63267382538E+03  0.66620415377E+03  0.79694052049E+02 0.  0.
          5    1    3    3  501    0  0.25737004460E+02 -0.15175953144E+01 -0.37330604916E+02  0.45610969706E+02  0.47000000000E+01 0. -1.
        -13    1    4    4    0    0 -0.75804599560E+02 -0.57729313399E+02 -0.36451480373E+03  0.37676259511E+03  0.00000000000E+00 0.  1.
         14    1    4    4    0    0 -0.11754316864E+03 -0.12239563400E+02 -0.27472846475E+03  0.29906844158E+03  0.00000000000E+00 0. -1.
         -5    1    5    5    0  502  0.30261823378E+01 -0.29074846606E+02 -0.23688425675E+03  0.23872734569E+03  0.47000000000E+01 0.  1.
         11    1    6    6    0    0  0.14977330340E+03  0.75520337593E+02 -0.59728904012E+03  0.62039468183E+03  0.00000000000E+00 0. -1.
        -12    1    6    6    0    0  0.14811277999E+02  0.25040981126E+02 -0.35384785259E+02  0.45809471941E+02  0.00000000000E+00 0.  1.
</event>
<event>
12    1  0.8297444E-002  0.1938672E+03  0.7818608E-02  0.1157970E+00
         21   -1    0    0  503  502  0.00000000000E+00  0.00000000000E+00  0.17162057879E+03  0.17162057879E+03  0.00000000000E+00 0.  1.
         21   -1    0    0  501  503 -0.00000000000E+00 -0.00000000000E+00 -0.22961353926E+03  0.22961353926E+03  0.00000000000E+00 0.  1.
          6    2    1    2  501    0 -0.26271770761E+01 -0.61034196509E+02 -0.96047387990E+02  0.21635523266E+03  0.18399024636E+03 0.  0.
         24    2    3    3    0    0  0.52574063997E+02 -0.71283156387E+02 -0.10619496119E+03  0.15910768741E+03  0.78692857502E+02 0.  0.
         -6    2    1    2    0  502  0.26271770761E+01  0.61034196509E+02  0.38054427517E+02  0.18487888540E+03  0.17029382728E+03 0.  0.
        -24    2    5    5    0    0 -0.33426322512E+02  0.96647476940E+02  0.29042145954E+02  0.13319260294E+03  0.80241942896E+02 0.  0.
          5    1    3    3  501    0 -0.55201241073E+02  0.10248959878E+02  0.10147573200E+02  0.57247545244E+02  0.47000000000E+01 0. -1.
        -13    1    4    4    0    0  0.55849541805E+02 -0.61821654151E+02 -0.40466264434E+02  0.92620768724E+02  0.00000000000E+00 0.  1.
         14    1    4    4    0    0 -0.32754778074E+01 -0.94615022355E+01 -0.65728696756E+02  0.66486918688E+02  0.00000000000E+00 0. -1.
         -5    1    5    5    0  502  0.36053499588E+02 -0.35613280431E+02  0.90122815638E+01  0.51686282460E+02  0.47000000000E+01 0.  1.
         13    1    6    6    0    0  0.21784368745E+01 -0.13743088959E+02  0.45959062073E+01  0.14654024540E+02  0.00000000000E+00 0. -1.
        -14    1    6    6    0    0 -0.35604759386E+02  0.11039056590E+03  0.24446239746E+02  0.11853857840E+03  0.00000000000E+00 0.  1.
</event>
<event>
12    1  0.8297444E-002  0.1876850E+03  0.7818608E-02  0.1161030E+00
         21   -1    0    0  501  502  0.00000000000E+00  0.00000000000E+00  0.92604121874E+02  0.92604121874E+02  0.00000000000E+00 0.  1.
         21   -1    0    0  502  503 -0.00000000000E+00 -0.00000000000E+00 -0.38771384714E+03  0.38771384714E+03  0.00000000000E+00 0. -1.
         -6    2    1    2    0  503 -0.29072432736E+02 -0.68749689256E+02 -0.18795482532E+03  0.26419800442E+03  0.17000542067E+03 0.  0.
        -24    2    3    3    0    0 -0.48353893726E+02 -0.66646401899E+02 -0.20731238280E+03  0.23639506236E+03  0.78258287253E+02 0.  0.
          6    2    1    2  501    0  0.29072432736E+02  0.68749689256E+02 -0.10715489994E+03  0.21611996459E+03  0.17220319508E+03 0.  0.
         24    2    5    5    0    0 -0.12710640495E+02  0.76060541796E+02 -0.12712940792E+03  0.16899943040E+03  0.80325305584E+02 0.  0.
          5    1    5    5  501    0  0.41783073232E+02 -0.73108525396E+01  0.19974507983E+02  0.47120534194E+02  0.47000000000E+01 0. -1.
        -13    1    6    6    0    0  0.29536782984E+02  0.71790178900E+01 -0.38715180727E+02  0.49222200943E+02  0.00000000000E+00 0.  1.
         14    1    6    6    0    0 -0.42247423479E+02  0.68881523906E+02 -0.88414227194E+02  0.11977722946E+03  0.00000000000E+00 0. -1.
         -5    1    3    3    0  503  0.19281460989E+02 -0.21032873570E+01  0.19357557472E+02  0.27802942054E+02  0.47000000000E+01 0.  1.
         11    1    4    4    0    0  0.15368770974E+01 -0.40206050641E+01 -0.11127420303E+03  0.11135742237E+03  0.00000000000E+00 0. -1.
        -12    1    4    4    0    0 -0.49890770823E+02 -0.62625796835E+02 -0.96038179766E+02  0.12503763999E+03  0.00000000000E+00 0.  1.
</event>
<event>
12    1  0.8297444E-002  0.2764708E+03  0.7818608E-02  0.1097920E+00
         21   -1    0    0  501  502  0.00000000000E+00  0.00000000000E+00  0.34517894260E+02  0.34517894260E+02  0.00000000000E+00 0. -1.
         21   -1    0    0  502  503 -0.00000000000E+00 -0.00000000000E+00 -0.32978374270E+04  0.32978374270E+04  0.00000000000E+00 0. -1.
         -6    2    1    2    0  503  0.19763946955E+03  0.82509106397E+02 -0.25980113818E+04  0.26126804750E+04  0.17483424212E+03 0.  0.
        -24    2    3    3    0    0  0.16703984921E+03  0.44305533275E+02 -0.24219164584E+04  0.24298489630E+04  0.92851278277E+02 0.  0.
          6    2    1    2  501    0 -0.19763946955E+03 -0.82509106397E+02 -0.66530815101E+03  0.71967484628E+03  0.17154543421E+03 0.  0.
         24    2    5    5    0    0 -0.30091431163E+02 -0.10534968689E+02 -0.28767136140E+03  0.30028927603E+03  0.80014731970E+02 0.  0.
          5    1    5    5  501    0 -0.16754803838E+03 -0.71974137708E+02 -0.37763678962E+03  0.41938557025E+03  0.47000000000E+01 0. -1.
        -11    1    6    6    0    0 -0.53332374972E+02  0.10972807104E+02 -0.18478166492E+03  0.19263698608E+03  0.00000000000E+00 0.  1.
         12    1    6    6    0    0  0.23240943810E+02 -0.21507775792E+02 -0.10288969648E+03  0.10765228995E+03  0.00000000000E+00 0. -1.
         -5    1    3    3    0  503  0.30599620332E+02  0.38203573122E+02 -0.17609492336E+03  0.18283151204E+03  0.47000000000E+01 0.  1.
         11    1    4    4    0    0  0.59283351547E+02  0.62185686372E+02 -0.94410652022E+03  0.94800775149E+03  0.00000000000E+00 0. -1.
        -12    1    4    4    0    0  0.10775649767E+03 -0.17880153097E+02 -0.14778099382E+04  0.14818412115E+04  0.00000000000E+00 0.  1.
</event>
<event>
12    1  0.8297444E-002  0.2203850E+03  0.7818608E-02  0.1135398E+00
         21   -1    0    0  501  502  0.00000000000E+00  0.00000000000E+00  0.80163528900E+03  0.80163528900E+03  0.00000000000E+00 0.  1.
         21   -1    0    0  502  503 -0.00000000000E+00 -0.00000000000E+00 -0.87176932188E+02  0.87176932188E+02  0.00000000000E+00 0. -1.
         -6    2    1    2    0  503  0.31444393819E+02  0.11599424835E+03  0.10545190066E+03  0.24431464548E+03  0.18473258265E+03 0.  0.
        -24    2    3    3    0    0 -0.44771632748E+02  0.10823914923E+03  0.84342539910E+02  0.16471113187E+03  0.79346584036E+02 0.  0.
          6    2    1    2  501    0 -0.31444393819E+02 -0.11599424835E+03  0.60900645615E+03  0.64449757570E+03  0.17333449138E+03 0.  0.
         24    2    5    5    0    0 -0.42835542986E+02 -0.15379432870E+03  0.49494547617E+03  0.52370601347E+03  0.61720214463E+02 0.  0.
          5    1    5    5  501    0  0.11391149166E+02  0.37800080352E+02  0.11406097998E+03  0.12079156224E+03  0.47000000000E+01 0. -1.
        -13    1    6    6    0    0  0.14162745704E+02 -0.56918129877E+02  0.16091645074E+03  0.17127276781E+03  0.00000000000E+00 0.  1.
         14    1    6    6    0    0 -0.56998288690E+02 -0.96876198828E+02  0.33402902543E+03  0.35243324566E+03  0.00000000000E+00 0. -1.
         -5    1    3    3    0  503  0.76216026567E+02  0.77550991194E+01  0.21109360750E+02  0.79603513612E+02  0.47000000000E+01 0.  1.
         11    1    4    4    0    0  0.51598955221E+01  0.79328395219E+02  0.28597519645E+02  0.84483353032E+02  0.00000000000E+00 0. -1.
        -12    1    4    4    0    0 -0.49931528270E+02  0.28910754015E+02  0.55745020266E+02  0.80227778839E+02  0.00000000000E+00 0.  1.
</event>
<event>
12    1  0.8297444E-002  0.1904043E+03  0.7818608E-02  0.1158205E+00
         21   -1    0    0  503  502  0.00000000000E+00  0.00000000000E+00  0.48441159398E+02  0.48441159398E+02  0.00000000000E+00 0.  1.
         21   -1    0    0  501  503 -0.00000000000E+00 -0.00000000000E+00 -0.15241414047E+04  0.15241414047E+04  0.00000000000E+00 0. -1.
          6    2    1    2  501    0  0.23361526209E+01 -0.77238857720E+02 -0.12999409380E+04  0.13138113350E+04  0.17401862810E+03 0.  0.
         24    2    3    3    0    0 -0.26011760593E+02 -0.73049434337E+02 -0.45667296825E+03  0.47004352674E+03  0.79861665078E+02 0.  0.
         -6    2    1    2    0  502 -0.23361526209E+01  0.77238857720E+02 -0.17575930730E+03  0.25877122910E+03  0.17349327410E+03 0.  0.
        -24    2    5    5    0    0 -0.96001449962E+01  0.43462616500E+02 -0.19406621712E+03  0.21939061200E+03  0.92137843430E+02 0.  0.
          5    1    3    3  501    0  0.28347913214E+02 -0.41894233832E+01 -0.84326796976E+03  0.84376780827E+03  0.47000000000E+01 0. -1.
        -11    1    4    4    0    0  0.15277300519E+02 -0.13469962345E+01 -0.19497013449E+03  0.19557240003E+03  0.00000000000E+00 0.  1.
         12    1    4    4    0    0 -0.41289061112E+02 -0.71702438102E+02 -0.26170283376E+03  0.27447112671E+03  0.00000000000E+00 0. -1.
         -5    1    5    5    0  502  0.72639923753E+01  0.33776241220E+02  0.18306909815E+02  0.39380617100E+02  0.47000000000E+01 0.  1.
         13    1    6    6    0    0  0.53525542389E+01 -0.27455297998E+02 -0.36774653843E+02  0.46204094952E+02  0.00000000000E+00 0. -1.
        -14    1    6    6    0    0 -0.14952699235E+02  0.70917914498E+02 -0.15729156327E+03  0.17318651705E+03  0.00000000000E+00 0.  1.
</event>
<event>
12    1  0.8297444E-002  0.3592552E+03  0.7818608E-02  0.1058879E+00
         21   -1    0    0  503  502  0.00000000000E+00  0.00000000000E+00  0.22218451875E+04  0.22218451875E+04  0.00000000000E+00 0. -1.
         21   -1    0    0  501  503 -0.00000000000E+00 -0.00000000000E+00 -0.86693527839E+02  0.86693527839E+02  0.00000000000E+00 0.  1.
          6    2    1    2  501    0 -0.28487492476E+03 -0.13455111301E+03  0.40454544053E+03  0.54103723926E+03  0.17264575305E+03 0.  0.
         24    2    3    3    0    0 -0.29226831465E+03 -0.98914333131E+02  0.33243520590E+03  0.46012606431E+03  0.77446858478E+02 0.  0.
         -6    2    1    2    0  502  0.28487492476E+03  0.13455111301E+03  0.17306062191E+04  0.17675014760E+04  0.17264372984E+03 0.  0.
        -24    2    5    5    0    0  0.24868170097E+03  0.15862022279E+03  0.13326206003E+04  0.13671217635E+04  0.78366371924E+02 0.  0.
          5    1    3    3  501    0  0.73933898857E+01 -0.35636779881E+02  0.72110234627E+02  0.80911174953E+02  0.47000000000E+01 0. -1.
        -11    1    4    4    0    0 -0.27461706901E+03 -0.74357011795E+02  0.31774666076E+03  0.42650491231E+03  0.00000000000E+00 0.  1.
         12    1    4    4    0    0 -0.17651245635E+02 -0.24557321337E+02  0.14688545141E+02  0.33621152004E+02  0.00000000000E+00 0. -1.
         -5    1    5    5    0  502  0.36193223799E+02 -0.24069109775E+02  0.39798561878E+03  0.40037971259E+03  0.47000000000E+01 0.  1.
         13    1    6    6    0    0  0.50232879156E+02  0.73928507482E+02  0.40172778680E+03  0.41155070289E+03  0.00000000000E+00 0. -1.
        -14    1    6    6    0    0  0.19844882181E+03  0.84691715305E+02  0.93089281351E+03  0.95557106056E+03  0.00000000000E+00 0.  1.
</event>
<event>
12    1  0.8297444E-002  0.2319368E+03  0.7818608E-02  0.1125342E+00
         21   -1    0    0  503  502  0.00000000000E+00  0.00000000000E+00  0.11772055244E+04  0.11772055244E+04  0.00000000000E+00 0.  1.
         21   -1    0    0  501  503 -0.00000000000E+00 -0.00000000000E+00 -0.19960314687E+04  0.19960314687E+04  0.00000000000E+00 0. -1.
          6    2    1    2  501    0 -0.14280814613E+03 -0.57400526797E+02 -0.19777972973E+04  0.19913505090E+04  0.17350998107E+03 0.  0.
         24    2    3    3    0    0 -0.22166034065E+02 -0.28095537176E+02 -0.12249778886E+04  0.12283482458E+04  0.83593618547E+02 0.  0.
         -6    2    1    2    0  502  0.14280814613E+03  0.57400526797E+02  0.11589713530E+04  0.11818864840E+04  0.17306668326E+03 0.  0.
        -24    2    5    5    0    0  0.80760250041E+02  0.10414717313E+03  0.85318952957E+03  0.86635549677E+03  0.72599047830E+02 0.  0.
          5    1    3    3  501    0 -0.12064211206E+03 -0.29304989621E+02 -0.75281940872E+03  0.76300226328E+03  0.47000000000E+01 0. -1.
        -11    1    4    4    0    0 -0.26740858838E+02 -0.20091967303E+02 -0.16630588523E+03  0.16963610507E+03  0.00000000000E+00 0.  1.
         12    1    4    4    0    0  0.45748247738E+01 -0.80035698727E+01 -0.10586720034E+04  0.10587121407E+04  0.00000000000E+00 0. -1.
         -5    1    5    5    0  502  0.62047896085E+02 -0.46746646330E+02  0.30578182343E+03  0.31553098721E+03  0.47000000000E+01 0.  1.
         11    1    6    6    0    0  0.40832021521E+02  0.54257588014E+01  0.17017131894E+03  0.17508560943E+03  0.00000000000E+00 0. -1.
        -12    1    6    6    0    0  0.39928228520E+02  0.98721414325E+02  0.68301821063E+03  0.69126988733E+03  0.00000000000E+00 0.  1.
</event>
<event>
12    1  0.8297444E-002  0.1803189E+03  0.7818608E-02  0.1169938E+00
         21   -1    0    0  501  502  0.00000000000E+00  0.00000000000E+00  0.10233904356E+04  0.10233904356E+04  0.00000000000E+00 0. -1.
         21   -1    0    0  502  503 -0.00000000000E+00 -0.00000000000E+00 -0.30237988435E+02  0.30237988435E+02  0.00000000000E+00 0.  1.
         -6    2    1    2    0  503  0.67625841158E+01  0.50684481600E+02  0.47055914306E+03  0.50392541294E+03  0.17291693229E+03 0.  0.
        -24    2    3    3    0    0  0.79151783218E+01 -0.19096484724E+02  0.25404648301E+03  0.27639402236E+03  0.10689581046E+03 0.  0.
          6    2    1    2  501    0 -0.67625841158E+01 -0.50684481600E+02  0.52259330407E+03  0.54970301106E+03  0.16264989914E+03 0.  0.
         24    2    5    5    0    0 -0.13965453601E+02 -0.12527089172E+02  0.11864749031E+03  0.14386784947E+03  0.79175559977E+02 0.  0.
          5    1    5    5  501    0  0.72028694847E+01 -0.38157392428E+02  0.40394581377E+03  0.40583516159E+03  0.47000000000E+01 0. -1.
        -13    1    6    6    0    0  0.20327252350E+02 -0.13350305101E+02  0.45704174120E+01  0.24745030808E+02  0.00000000000E+00 0.  1.
         14    1    6    6    0    0 -0.34292705950E+02  0.82321592814E+00  0.11407707289E+03  0.11912281866E+03  0.00000000000E+00 0. -1.
         -5    1    3    3    0  503 -0.11525942060E+01  0.69780966324E+02  0.21651266006E+03  0.22753139058E+03  0.47000000000E+01 0.  1.
         13    1    4    4    0    0  0.13391824435E+02 -0.45934828102E+02  0.24162654540E+03  0.24631836480E+03  0.00000000000E+00 0. -1.
        -14    1    4    4    0    0 -0.54766461131E+01  0.26838343379E+02  0.12419937608E+02  0.30075657568E+02  0.00000000000E+00 0.  1.
</event>
<event>
12    1  0.8297444E-002  0.1883780E+03  0.7818608E-02  0.1160570E+00
         21   -1    0    0  503  502  0.00000000000E+00  0.00000000000E+00  0.66600103009E+02  0.66600103009E+02  0.00000000000E+00 0. -1.
         21   -1    0    0  501  503 -0.00000000000E+00 -0.00000000000E+00 -0.55833676789E+03  0.55833676789E+03  0.00000000000E+00 0.  1.
          6    2    1    2  501    0  0.64669916936E+02 -0.28188803155E+02 -0.32048887428E+03  0.37035473125E+03  0.17167615339E+03 0.  0.
         24    2    3    3    0    0  0.43441523946E+02 -0.70366658924E+02 -0.13021810856E+03  0.17425610690E+03  0.81054316988E+02 0.  0.
         -6    2    1    2    0  502 -0.64669916936E+02  0.28188803155E+02 -0.17124779060E+03  0.25458213965E+03  0.17466955448E+03 0.  0.
        -24    2    5    5    0    0 -0.10100312720E+03 -0.34843694514E+01 -0.74966912187E+02  0.14680742286E+03  0.75621484694E+02 0.  0.
          5    1    3    3  501    0  0.21228392990E+02  0.42177855769E+02 -0.19027076571E+03  0.19609862435E+03  0.47000000000E+01 0. -1.
        -13    1    4    4    0    0  0.33575547437E+02  0.61585975200E+01 -0.64190926556E+02  0.72702962534E+02  0.00000000000E+00 0.  1.
         14    1    4    4    0    0  0.98659765088E+01 -0.76525256444E+02 -0.66027182006E+02  0.10155314436E+03  0.00000000000E+00 0. -1.
         -5    1    5    5    0  502  0.36333210269E+02  0.31673172607E+02 -0.96280878413E+02  0.10777471679E+03  0.47000000000E+01 0.  1.
         11    1    6    6    0    0 -0.49502472526E+02  0.35989690594E+02 -0.33029340665E+02  0.69546315215E+02  0.00000000000E+00 0. -1.
        -12    1    6    6    0    0 -0.51500654679E+02 -0.39474060046E+02 -0.41937571522E+02  0.77261107642E+02  0.00000000000E+00 0.  1.
</event>
<event>
12    1  0.8297444E-002  0.1909137E+03  0.7818608E-02  0.1157753E+00
         21   -1    0    0  503  502  0.00000000000E+00  0.00000000000E+00  0.80578139018E+02  0.80578139018E+02  0.00000000000E+00 0.  1.
         21   -1    0    0  501  503 -0.00000000000E+00 -0.00000000000E+00 -0.58796820311E+03  0.58796820311E+03  0.00000000000E+00 0. -1.
          6    2    1    2  501    0  0.70331108118E+02 -0.42707931076E+02 -0.92696830521E+02  0.21222807158E+03  0.17227193571E+03 0.  0.
         24    2    3    3    0    0 -0.25309071424E+00  0.34024111406E+02 -0.41866591748E+02  0.96143022408E+02  0.79579928634E+02 0.  0.
         -6    2    1    2    0  502 -0.70331108118E+02  0.42707931076E+02 -0.41469323357E+03  0.45631827054E+03  0.17171328987E+03 0.  0.
        -24    2    5    5    0    0 -0.11218644942E+03  0.47654334857E+02 -0.28572802573E+03  0.32055947216E+03  0.79127336867E+02 0.  0.
          5    1    3    3  501    0  0.70584198832E+02 -0.76732042482E+02 -0.50830238773E+02  0.11608504918E+03  0.47000000000E+01 0. -1.
        -11    1    4    4    0    0  0.24677701642E+02 -0.46269060483E+01 -0.43382326286E+02  0.50124080559E+02  0.00000000000E+00 0.  1.
         12    1    4    4    0    0 -0.24930792356E+02  0.38651017454E+02  0.15157345383E+01  0.46018941849E+02  0.00000000000E+00 0. -1.
         -5    1    5    5    0  502  0.41855341300E+02 -0.49464037810E+01 -0.12896520784E+03  0.13575879839E+03  0.47000000000E+01 0.  1.
         11    1    6    6    0    0 -0.10654152884E+02  0.42191636828E+02 -0.79649011332E+02  0.90761281382E+02  0.00000000000E+00 0. -1.
        -12    1    6    6    0    0 -0.10153229653E+03  0.54626980296E+01 -0.20607901440E+03  0.22979819077E+03  0.00000000000E+00 0.  1.
</event>
<event>
12    1  0.8297444E-002  0.1873748E+03  0.7818608E-02  0.1160851E+00
         21   -1    0    0  501  502  0.00000000000E+00  0.00000000000E+00  0.18833125098E+03  0.18833125098E+03  0.00000000000E+00 0. -1.
         21   -1    0    0  502  503 -0.00000000000E+00 -0.00000000000E+00 -0.83008658042E+03  0.83008658042E+03  0.00000000000E+00 0. -1.
         -6    2    1    2    0  503 -0.72489706631E+02  0.57145136949E+01 -0.76927585998E+03  0.79176656347E+03  0.17268911095E+03 0.  0.
        -24    2    3    3    0    0 -0.10080720664E+03  0.26153122037E+02 -0.40421319065E+03  0.42500715997E+03  0.79979396254E+02 0.  0.
          6    2    1    2  501    0  0.72489706631E+02 -0.57145136949E+01  0.12752053054E+03  0.22665126794E+03  0.17269018014E+03 0.  0.
         24    2    5    5    0    0  0.89606602275E+01 -0.62925766377E+02  0.71886306776E+02  0.12454189509E+03  0.79392046358E+02 0.  0.
          5    1    5    5  501    0  0.63529046403E+02  0.57211252682E+02  0.55634223762E+02  0.10210937285E+03  0.47000000000E+01 0. -1.
        -13    1    6    6    0    0  0.29829498813E+02 -0.58961924060E+01 -0.41151546384E-01  0.30406673244E+02  0.00000000000E+00 0.  1.
         14    1    6    6    0    0 -0.20868838586E+02 -0.57029573971E+02  0.71927458323E+02  0.94135221846E+02  0.00000000000E+00 0. -1.
         -5    1    3    3    0  503  0.28317500006E+02 -0.20438608342E+02 -0.36506266933E+03  0.36675940350E+03  0.47000000000E+01 0.  1.
         13    1    4    4    0    0 -0.78338199922E+02 -0.73089966232E+01 -0.34159156206E+03  0.35053543369E+03  0.00000000000E+00 0. -1.
        -14    1    4    4    0    0 -0.22469006715E+02  0.33462118660E+02 -0.62621628591E+02  0.74471726281E+02  0.00000000000E+00 0.  1.
</event>
<event>
12    1  0.8297444E-002  0.1954435E+03  0.7818608E-02  0.1154953E+00
         21   -1    0    0  501  502  0.00000000000E+00  0.00000000000E+00  0.53530896304E+03  0.53530896304E+03  0.00000000000E+00 0. -1.
         21   -1    0    0  502  503 -0.00000000000E+00 -0.00000000000E+00 -0.76031832191E+02  0.76031832191E+02  0.00000000000E+00 0. -1.
         -6    2    1    2    0  503  0.33245206672E+02  0.71418305250E+02  0.14129056990E+03  0.24116630765E+03  0.17886403974E+03 0.  0.
        -24    2    3    3    0    0  0.39185972800E+02  0.98440668626E+02  0.15970827545E+03  0.20759842564E+03  0.79776358516E+02 0.  0.
          6    2    1    2  501    0 -0.33245206672E+02 -0.71418305250E+02  0.31798656095E+03  0.37017448758E+03  0.17235974071E+03 0.  0.
         24    2    5    5    0    0 -0.81881661549E+02 -0.52337111993E+02  0.15414312102E+03  0.19813856259E+03  0.77813934723E+02 0.  0.
          5    1    5    5  501    0  0.48636454876E+02 -0.19081193257E+02  0.16384343993E+03  0.17203592499E+03  0.47000000000E+01 0. -1.
        -13    1    6    6    0    0 -0.62704251503E+02  0.58601180649E+01  0.84285365748E+02  0.10521495625E+03  0.00000000000E+00 0.  1.
         14    1    6    6    0    0 -0.19177410046E+02 -0.58197230058E+02  0.69857755270E+02  0.92923606332E+02  0.00000000000E+00 0. -1.
         -5    1    3    3    0  503 -0.59407661277E+01 -0.27022363376E+02 -0.18417705554E+02  0.33567882008E+02  0.47000000000E+01 0.  1.
         11    1    4    4    0    0  0.51127073123E+02  0.97551804346E+02  0.10703054298E+03  0.15357691646E+03  0.00000000000E+00 0. -1.
        -12    1    4    4    0    0 -0.11941100323E+02  0.88886427988E+00  0.52677732470E+02  0.54021509187E+02  0.00000000000E+00 0.  1.
</event>
<event>
12    1  0.8297444E-002  0.2053449E+03  0.7818608E-02  0.1145307E+00
         21   -1    0    0  501  502  0.00000000000E+00  0.00000000000E+00  0.35188092589E+02  0.35188092589E+02  0.00000000000E+00 0. -1.
         21   -1    0    0  502  503 -0.00000000000E+00 -0.00000000000E+00 -0.13245359620E+04  0.13245359620E+04  0.00000000000E+00 0.  1.
         -6    2    1    2    0  503  0.29983290809E+02  0.10763874332E+03 -0.43479506649E+03  0.48084577286E+03  0.17228119641E+03 0.  0.
        -24    2    3    3    0    0  0.65884582326E+02  0.12881677665E+02 -0.24620519033E+03  0.26670554867E+03  0.77512180579E+02 0.  0.
          6    2    1    2  501    0 -0.29983290809E+02 -0.10763874332E+03 -0.85455280295E+03  0.87887828176E+03  0.17228303554E+03 0.  0.
         24    2    5    5    0    0 -0.46631991159E+02 -0.54732686636E+02 -0.77303226632E+03  0.78016699594E+03  0.76885936242E+02 0.  0.
          5    1    5    5  501    0  0.16648700350E+02 -0.52906056682E+02 -0.81520536628E+02  0.98711285825E+02  0.47000000000E+01 0. -1.
        -13    1    6    6    0    0 -0.30864115817E+01  0.72835275462E+00 -0.42757188963E+03  0.42758364941E+03  0.00000000000E+00 0.  1.
         14    1    6    6    0    0 -0.43545579577E+02 -0.55461039391E+02 -0.34546037669E+03  0.35258334653E+03  0.00000000000E+00 0. -1.
         -5    1    3    3    0  503 -0.35901291518E+02  0.94757065653E+02 -0.18858987616E+03  0.21414022418E+03  0.47000000000E+01 0.  1.
         13    1    4    4    0    0 -0.10649013229E+02  0.19710139420E+02 -0.31411688761E+02  0.38582188501E+02  0.00000000000E+00 0. -1.
        -14    1    4    4    0    0  0.76533595555E+02 -0.68284617546E+01 -0.21479350157E+03  0.22812336017E+03  0.00000000000E+00 0.  1.
</event>
<event>
12    1  0.8297444E-002  0.1893557E+03  0.7818608E-02  0.1159186E+00
         21   -1    0    0  503  502  0.00000000000E+00  0.00000000000E+00  0.21071877763E+04  0.21071877763E+04  0.00000000000E+00 0.  1.
         21   -1    0    0  501  503 -0.00000000000E+00 -0.00000000000E+00 -0.16961479481E+02  0.16961479481E+02  0.00000000000E+00 0.  1.
          6    2    1    2  501    0 -0.19573527148E+02  0.75985109904E+02  0.10582277254E+04  0.10750355741E+04  0.17233312753E+03 0.  0.
         24    2    3    3    0    0 -0.20381256942E+02  0.55538282025E+02  0.10460134625E+04  0.10507455881E+04  0.80138822720E+02 0.  0.
         -6    2    1    2    0  502  0.19573527148E+02 -0.75985109904E+02  0.10319985714E+04  0.10491136817E+04  0.17164383421E+03 0.  0.
        -24    2    5    5    0    0 -0.34763792711E+02 -0.96340988734E+02  0.69371696180E+03  0.70585948502E+03  0.80649129606E+02 0.  0.
          5    1    3    3  501    0  0.80772979350E+00  0.20446827879E+02  0.12214262896E+02  0.24289985916E+02  0.47000000000E+01 0. -1.
        -11    1    4    4    0    0 -0.29192922342E+02  0.72855958605E+02  0.75016384291E+03  0.75425858208E+03  0.00000000000E+00 0.  1.
         12    1    4    4    0    0  0.88116654001E+01 -0.17317676580E+02  0.29584961956E+03  0.29648700606E+03  0.00000000000E+00 0. -1.
         -5    1    5    5    0  502  0.54337319859E+02  0.20355878830E+02  0.33828160960E+03  0.34325419666E+03  0.47000000000E+01 0.  1.
         13    1    6    6    0    0 -0.22315825243E+02 -0.46211661244E+02  0.56259848036E+03  0.56493412341E+03  0.00000000000E+00 0. -1.
        -14    1    6    6    0    0 -0.12447967468E+02 -0.50129327490E+02  0.13111848144E+03  0.14092536161E+03  0.00000000000E+00 0.  1.
</event>
<event>
12    1  0.8297444E-002  0.2494845E+03  0.7818608E-02  0.1113670E+00
         21   -1    0    0  503  502  0.00000000000E+00  0.00000000000E+00  0.55328186575E+02  0.55328186575E+02  0.00000000000E+00 0. -1.
         21   -1    0    0  501  503 -0.00000000000E+00 -0.00000000000E+00 -0.13418148840E+04  0.13418148840E+04  0.00000000000E+00 0.  1.
          6    2    1    2  501    0 -0.42978119575E+02 -0.17537591184E+03 -0.92451836337E+03  0.95752551166E+03  0.17180533185E+03 0.  0.
         24    2    3    3    0    0  0.21753412048E+02 -0.65288339324E+02 -0.61190081700E+03  0.61979593773E+03  0.70630137984E+02 0.  0.
         -6    2    1    2    0  502  0.42978119575E+02  0.17537591184E+03 -0.36196833409E+03  0.43961755895E+03  0.17215892089E+03 0.  0.
        -24    2    5    5    0    0  0.65507929489E+02  0.46632714459E+02 -0.21424988672E+03  0.24232277215E+03  0.79695753085E+02 0.  0.
          5    1    3    3  501    0 -0.64731531622E+02 -0.11008757251E+03 -0.31261754637E+03  0.33772957393E+03  0.47000000000E+01 0. -1.
        -13    1    4    4    0    0  0.24046044734E+02 -0.76872534863E+02 -0.58357318328E+03  0.58910547369E+03  0.00000000000E+00 0.  1.
         14    1    4    4    0    0 -0.22926326861E+01  0.11584195539E+02 -0.28327633715E+02  0.30690464037E+02  0.00000000000E+00 0. -1.
         -5    1    5    5    0  502 -0.22529809914E+02  0.12874319738E+03 -0.14771844737E+03  0.19729478680E+03  0.47000000000E+01 0.  1.
         13    1    6    6    0    0  0.61653117377E+02  0.61344665446E+02 -0.12806363978E+03  0.15480494403E+03  0.00000000000E+00 0. -1.
        -14    1    6    6    0    0  0.38548121117E+01 -0.14711950987E+02 -0.86186246939E+02  0.87517828125E+02  0.00000000000E+00 0.  1.
</event>
<event>
12    1  0.8297444E-002  0.2224063E+03  0.7818608E-02  0.1132180E+00
         21   -1    0    0  501  502  0.00000000000E+00  0.00000000000E+00  0.21368806126E+03  0.21368806126E+03  0.00000000000E+00 0. -1.
         21   -1    0    0  502  503 -0.00000000000E+00 -0.00000000000E+00 -0.31595291998E+03  0.31595291998E+03  0.00000000000E+00 0. -1.
         -6    2    1    2    0  503  0.10678891139E+03  0.91961025215E+02 -0.18838487580E+03  0.29114315668E+03  0.17150735989E+03 0.  0.
        -24    2    3    3    0    0  0.10438589360E+03  0.41141134939E+02 -0.19645652327E+03  0.23941620786E+03  0.78332287615E+02 0.  0.
          6    2    1    2  501    0 -0.10678891139E+03 -0.91961025215E+02  0.86120017088E+02  0.23849782456E+03  0.17205770317E+03 0.  0.
         24    2    5    5    0    0 -0.11290436826E+03 -0.94414676474E+02  0.11845800461E+03  0.20516233815E+03  0.79985990226E+02 0.  0.
          5    1    5    5  501    0  0.61154568709E+01  0.24536512587E+01 -0.32337987520E+02  0.33335486409E+02  0.47000000000E+01 0. -1.
        -13    1    6    6    0    0 -0.22880688668E+02 -0.35169984384E+02 -0.38674352930E+01  0.42135623542E+02  0.00000000000E+00 0.  1.
         14    1    6    6    0    0 -0.90023679596E+02 -0.59244692090E+02  0.12232543990E+03  0.16302671461E+03  0.00000000000E+00 0. -1.
         -5    1    3    3    0  503  0.24030177986E+01  0.50819890276E+02  0.80716474653E+01  0.51726948828E+02  0.47000000000E+01 0.  1.
         11    1    4    4    0    0  0.38609556136E+02  0.44131978337E+02 -0.43878330260E+02  0.73236856864E+02  0.00000000000E+00 0. -1.
        -12    1    4    4    0    0  0.65776337459E+02 -0.29908433979E+01 -0.15257819301E+03  0.16617935099E+03  0.00000000000E+00 0.  1.
</event>
<event>
12    1  0.8297444E-002  0.2142913E+03  0.7818608E-02  0.1138976E+00
         21   -1    0    0  501  502  0.00000000000E+00  0.00000000000E+00  0.22085578125E+03  0.22085578125E+03  0.00000000000E+00 0.  1.
         21   -1    0    0  502  503 -0.00000000000E+00 -0.00000000000E+00 -0.77611444922E+03  0.77611444922E+03  0.00000000000E+00 0. -1.
         -6    2    1    2    0  503 -0.11776368781E+03  0.25246055244E+02 -0.70488762268E+03  0.73560921639E+03  0.17247814110E+03 0.  0.
        -24    2    3    3    0    0 -0.22558987698E+02  0.51877798125E+01 -0.52184807119E+03  0.52826448714E+03  0.78753653788E+02 0.  0.
          6    2    1    2  501    0  0.11776368781E+03 -0.25246055244E+02  0.14962895470E+03  0.26136101409E+03  0.17724307074E+03 0.  0.
         24    2    5    5    0    0  0.74193926195E+02 -0.85621727740E+02  0.82795021674E+02  0.16119909237E+03  0.79336705395E+02 0.  0.
          5    1    5    5  501    0  0.43569761619E+02  0.60375672496E+02  0.66833933029E+02  0.10016192171E+03  0.47000000000E+01 0. -1.
        -13    1    6    6    0    0  0.18435876699E+02 -0.48997201409E+02  0.78493916497E+02  0.94349892542E+02  0.00000000000E+00 0.  1.
         14    1    6    6    0    0  0.55758049496E+02 -0.36624526330E+02  0.43011051770E+01  0.66849199832E+02  0.00000000000E+00 0. -1.
         -5    1    3    3    0  503 -0.95204700116E+02  0.20058275431E+02 -0.18303955149E+03  0.20734472924E+03  0.47000000000E+01 0.  1.
         11    1    4    4    0    0 -0.33066639275E+01 -0.36207731830E+02 -0.24248325354E+03  0.24519392757E+03  0.00000000000E+00 0. -1.
        -12    1    4    4    0    0 -0.19252323770E+02  0.41395511642E+02 -0.27936481765E+03  0.28307055957E+03  0.00000000000E+00 0.  1.
</event>
<event>
12    1  0.8297444E-002  0.2627350E+03  0.7818608E-02  0.1105612E+00
         21   -1    0    0  501  502  0.00000000000E+00  0.00000000000E+00  0.25114335668E+03  0.25114335668E+03  0.00000000000E+00 0. -1.
         21   -1    0    0  502  503 -0.00000000000E+00 -0.00000000000E+00 -0.32776982177E+03  0.32776982177E+03  0.00000000000E+00 0.  1.
         -6    2    1    2    0  503 -0.12665662315E+03 -0.15253326720E+03 -0.15534471687E+03  0.30463919303E+03  0.17136148658E+03 0.  0.
        -24    2    3    3    0    0 -0.69305983341E+01 -0.61053465752E+02 -0.10564569983E+03  0.14590999791E+03  0.79706679292E+02 0.  0.
          6    2    1    2  501    0  0.12665662315E+03  0.15253326720E+03  0.78718251784E+02  0.27427398541E+03  0.17239883445E+03 0.  0.
         24    2    5    5    0    0  0.36745232071E+01  0.11011886032E+03  0.37510411948E+02  0.13773184949E+03  0.73643505093E+02 0.  0.
          5    1    5    5  501    0  0.12298209994E+03  0.42414406880E+02  0.41207839837E+02  0.13654213592E+03  0.47000000000E+01 0. -1.
        -13    1    6    6    0    0  0.19884253567E+02  0.26137663383E+02 -0.16317956913E+02  0.36672015282E+02  0.00000000000E+00 0.  1.
         14    1    6    6    0    0 -0.16209730360E+02  0.83981196934E+02  0.53828368860E+02  0.10105983421E+03  0.00000000000E+00 0. -1.
         -5    1    3    3    0  503 -0.11972602481E+03 -0.91479801445E+02 -0.49699017047E+02  0.15872919513E+03  0.47000000000E+01 0.  1.
         11    1    4    4    0    0  0.13771362830E+02 -0.36315203658E+02 -0.37372792599E+01  0.39018094612E+02  0.00000000000E+00 0. -1.
        -12    1    4    4    0    0 -0.20701961164E+02 -0.24738262094E+02 -0.10190842057E+03  0.10689190329E+03  0.00000000000E+00 0.  1.
</event>
<event>
12    1  0.8297444E-002  0.3239184E+03  0.7818608E-02  0.1073867E+00
         21   -1    0    0  503  502  0.00000000000E+00  0.00000000000E+00  0.30198225952E+03  0.30198225952E+03  0.00000000000E+00 0.  1.
         21   -1    0    0  501  503 -0.00000000000E+00 -0.00000000000E+00 -0.36313170564E+03  0.36313170564E+03  0.00000000000E+00 0. -1.
          6    2    1    2  501    0  0.39877903989E+02  0.27135480479E+03  0.38683478317E+02  0.32622006666E+03  0.17233526361E+03 0.  0.
         24    2    3    3    0    0 -0.11546065249E+02  0.72172444442E+02  0.56163393431E+02  0.11971177452E+03  0.76383302092E+02 0.  0.
         -6    2    1    2    0  502 -0.39877903989E+02 -0.27135480479E+03 -0.99832924439E+02  0.33889389850E+03  0.17221725909E+03 0.  0.
        -24    2    5    5    0    0 -0.41655044270E+02 -0.53545437920E+02 -0.19949160220E+02  0.10684307581E+03  0.80095051161E+02 0.  0.
          5    1    3    3  501    0  0.51423969239E+02  0.19918236035E+03 -0.17479915114E+02  0.20650829213E+03  0.47000000000E+01 0. -1.
        -13    1    4    4    0    0  0.52991760063E+00  0.86338538388E+02  0.40423918899E+02  0.95334764083E+02  0.00000000000E+00 0.  1.
         14    1    4    4    0    0 -0.12075982850E+02 -0.14166093946E+02  0.15739474532E+02  0.24377010441E+02  0.00000000000E+00 0. -1.
         -5    1    5    5    0  502  0.17771402809E+01 -0.21780936687E+03 -0.79883764219E+02  0.23205082269E+03  0.47000000000E+01 0.  1.
         13    1    6    6    0    0 -0.70115672653E+01 -0.11082126632E+02 -0.44792353255E+02  0.46672588490E+02  0.00000000000E+00 0. -1.
        -14    1    6    6    0    0 -0.34643477005E+02 -0.42463311288E+02  0.24843193035E+02  0.60170487324E+02  0.00000000000E+00 0.  1.
</event>
<event>
12    1  0.8297444E-002  0.1838600E+03  0.7818608E-02  0.1164501E+00
         21   -1    0    0  501  502  0.00000000000E+00  0.00000000000E+00  0.17842776945E+03  0.17842776945E+03  0.00000000000E+00 0.  1.
         21   -1    0    0  502  503 -0.00000000000E+00 -0.00000000000E+00 -0.43487421531E+03  0.43487421531E+03  0.00000000000E+00 0.  1.
         -6    2    1    2    0  503 -0.59464118668E+02  0.29471859967E+02 -0.35912067639E+03  0.40271591701E+03  0.16972883567E+03 0.  0.
        -24    2    3    3    0    0  0.35810633362E+01  0.68463733525E+02 -0.24394838583E+03  0.26566918158E+03  0.79807219410E+02 0.  0.
          6    2    1    2  501    0  0.59464118668E+02 -0.29471859967E+02  0.10267423054E+03  0.21058606775E+03  0.17146405564E+03 0.  0.
         24    2    5    5    0    0  0.98423320921E+02 -0.42189332848E+02  0.10418753263E+03  0.16930733667E+03  0.79641963725E+02 0.  0.
          5    1    5    5  501    0 -0.38959202253E+02  0.12717472881E+02 -0.15133020959E+01  0.41278731084E+02  0.47000000000E+01 0. -1.
        -13    1    6    6    0    0  0.78226223342E+02 -0.16145320991E+02  0.10989783492E+03  0.13585855707E+03  0.00000000000E+00 0.  1.
         14    1    6    6    0    0  0.20197097579E+02 -0.26044011857E+02 -0.57103022913E+01  0.33448779596E+02  0.00000000000E+00 0. -1.
         -5    1    3    3    0  503 -0.63045182004E+02 -0.38991873559E+02 -0.11517229056E+03  0.13704673542E+03  0.47000000000E+01 0.  1.
         11    1    4    4    0    0 -0.32883403306E+02  0.35030672305E+02 -0.70587816398E+02  0.85387973620E+02  0.00000000000E+00 0. -1.
        -12    1    4    4    0    0  0.36464466642E+02  0.33433061221E+02 -0.17336056943E+03  0.18028120796E+03  0.00000000000E+00 0.  1.
</event>
<event>
12    1  0.8297444E-002  0.2043140E+03  0.7818608E-02  0.1146367E+00
         21   -1    0    0  501  502  0.00000000000E+00  0.00000000000E+00  0.64236368631E+02  0.64236368631E+02  0.00000000000E+00 0. -1.
         21   -1    0    0  502  503 -0.00000000000E+00 -0.00000000000E+00 -0.11211036967E+04  0.11211036967E+04  0.00000000000E+00 0. -1.
         -6    2    1    2    0  503 -0.10367337363E+03  0.30191266891E+02 -0.91326087960E+03  0.93560612390E+03  0.17220250828E+03 0.  0.
        -24    2    3    3    0    0 -0.12728382063E+03  0.28934377398E+02 -0.53316506466E+03  0.55474663338E+03  0.80252550626E+02 0.  0.
          6    2    1    2  501    0  0.10367337363E+03 -0.30191266891E+02 -0.14360644850E+03  0.24973394147E+03  0.17344897946E+03 0.  0.
         24    2    5    5    0    0  0.58201469220E+02  0.18366307759E+02 -0.15289101796E+03  0.18240025469E+03  0.78545892684E+02 0.  0.
          5    1    5    5  501    0  0.45471904406E+02 -0.48557574650E+02  0.92845694562E+01  0.67333686786E+02  0.47000000000E+01 0. -1.
        -13    1    6    6    0    0  0.48760508896E+02  0.33562504246E+02 -0.48610883051E+02  0.76596650515E+02  0.00000000000E+00 0.  1.
         14    1    6    6    0    0  0.94409603240E+01 -0.15196196487E+02 -0.10428013491E+03  0.10580360417E+03  0.00000000000E+00 0. -1.
         -5    1    3    3    0  503  0.23610447001E+02  0.12568894933E+01 -0.38009581495E+03  0.38085949052E+03  0.47000000000E+01 0.  1.
         13    1    4    4    0    0 -0.84913923463E+02  0.32561589373E+02 -0.46922399781E+03  0.47795584694E+03  0.00000000000E+00 0. -1.
        -14    1    4    4    0    0 -0.42369897164E+02 -0.36272119750E+01 -0.63941066850E+02  0.76790786441E+02  0.00000000000E+00 0.  1.
</event>
<event>
12    1  0.8297444E-002  0.2300651E+03  0.7818608E-02  0.1126796E+00
         21   -1    0    0  503  502  0.00000000000E+00  0.00000000000E+00  0.51918743360E+03  0.51918743360E+03  0.00000000000E+00 0.  1.
         21   -1    0    0  501  503 -0.00000000000E+00 -0.00000000000E+00 -0.19291484538E+03  0.19291484538E+03  0.00000000000E+00 0. -1.
          6    2    1    2  501    0 -0.14066094128E+03  0.58543999945E+02 -0.81825187418E+02  0.24418298960E+03  0.17238639965E+03 0.  0.
         24    2    3    3    0    0 -0.68692834711E+02  0.36673682589E+02  0.25173554919E+02  0.11330694135E+03  0.78365110579E+02 0.  0.
         -6    2    1    2    0  502  0.14066094128E+03 -0.58543999945E+02  0.40809777564E+03  0.46791928939E+03  0.17085598196E+03 0.  0.
        -24    2    5    5    0    0  0.68320892644E+02  0.34606844480E+02  0.20036615552E+03  0.22899528798E+03  0.80167746515E+02 0.  0.
          5    1    3    3  501    0 -0.71968106565E+02  0.21870317355E+02 -0.10699874234E+03  0.13087604825E+03  0.47000000000E+01 0. -1.
        -11    1    4    4    0    0 -0.50253041201E+02  0.56275448104E+02 -0.14359045950E+01  0.75460956999E+02  0.00000000000E+00 0.  1.
         12    1    4    4    0    0 -0.18439793510E+02 -0.19601765515E+02  0.26609459514E+02  0.37845984353E+02  0.00000000000E+00 0. -1.
         -5    1    5    5    0  502  0.72340048632E+02 -0.93150844425E+02  0.20773162011E+03  0.23892400141E+03  0.47000000000E+01 0.  1.
         13    1    6    6    0    0  0.47597462373E+00 -0.69492422223E+01  0.10309918294E+03  0.10333421525E+03  0.00000000000E+00 0. -1.
        -14    1    6    6    0    0  0.67844918020E+02  0.41556086702E+02  0.97266972585E+02  0.12566107273E+03  0.00000000000E+00 0.  1.
</event>
<event>
12    1  0.8297444E-002  0.3000852E+03  0.7818608E-02  0.1085691E+00
         21   -1    0    0  503  502  0.00000000000E+00  0.00000000000E+00  0.13853581189E+04  0.13853581189E+04  0.00000000000E+00 0.  1.
         21   -1    0    0  501  503 -0.00000000000E+00 -0.00000000000E+00 -0.11722454311E+03  0.11722454311E+03  0.00000000000E+00 0.  1.
          6    2    1    2  501    0 -0.14564941726E+03  0.19800583549E+03  0.13085582830E+03  0.32737493170E+03  0.17213667380E+03 0.  0.
         24    2    3    3    0    0 -0.28159418046E+02  0.12088310910E+03  0.22380235327E+02  0.14977746800E+03  0.80788217555E+02 0.  0.
         -6    2    1    2    0  502  0.14564941726E+03 -0.19800583549E+03  0.11372777475E+04  0.11752077303E+04  0.16520433050E+03 0.  0.
        -24    2    5    5    0    0  0.10144422477E+03 -0.13595402596E+03  0.50905954642E+03  0.54236910612E+03  0.79045541069E+02 0.  0.
          5    1    3    3  501    0 -0.11748999922E+03  0.77122726390E+02  0.10847559298E+03  0.17759746370E+03  0.47000000000E+01 0. -1.
        -13    1    4    4    0    0 -0.16639942971E+02  0.95048655880E+02 -0.20269517392E+02  0.98600142099E+02  0.00000000000E+00 0.  1.
         14    1    4    4    0    0 -0.11519475074E+02  0.25834453224E+02  0.42649752718E+02  0.51177325900E+02  0.00000000000E+00 0. -1.
         -5    1    5    5    0  502  0.44205192496E+02 -0.62051809530E+02  0.62821820111E+03  0.63283862422E+03  0.47000000000E+01 0.  1.
         11    1    6    6    0    0  0.10983513101E+03 -0.96511871538E+02  0.41605027911E+03  0.44099448081E+03  0.00000000000E+00 0. -1.
        -12    1    6    6    0    0 -0.83909062443E+01 -0.39442154426E+02  0.93009267303E+02  0.10137462531E+03  0.00000000000E+00 0.  1.
</event>
<event>
12    1  0.8297444E-002  0.2292093E+03  0.7818608E-02  0.1127241E+00
         21   -1    0    0  503  502  0.00000000000E+00  0.00000000000E+00  0.42162398864E+02  0.42162398864E+02  0.00000000000E+00 0.  1.
         21   -1    0    0  501  503 -0.00000000000E+00 -0.00000000000E+00 -0.12465809087E+04  0.12465809087E+04  0.00000000000E+00 0.  1.
          6    2    1    2  501    0  0.57225671662E+02  0.13999958287E+03 -0.57699360849E+03  0.62076209789E+03  0.17189909028E+03 0.  0.
         24    2    3    3    0    0  0.80489764939E+01  0.15318946174E+03 -0.49611027477E+03  0.52507237051E+03  0.77741831303E+02 0.  0.
         -6    2    1    2    0  502 -0.57225671662E+02 -0.13999958287E+03 -0.62742490139E+03  0.66798120972E+03  0.17222725961E+03 0.  0.
        -24    2    5    5    0    0 -0.86195418550E+02 -0.62384076540E+02 -0.27062432818E+03  0.30165873962E+03  0.80243660187E+02 0.  0.
          5    1    3    3  501    0  0.49176695168E+02 -0.13189878863E+02 -0.80883333726E+02  0.95689727383E+02  0.47000000000E+01 0. -1.
        -13    1    4    4    0    0  0.16102279937E+02  0.44736150726E+02 -0.27016709012E+03  0.27431890781E+03  0.00000000000E+00 0.  1.
         14    1    4    4    0    0 -0.80533034434E+01  0.10845331101E+03 -0.22594318465E+03  0.25075346270E+03  0.00000000000E+00 0. -1.
         -5    1    5    5    0  502  0.28969746888E+02 -0.77615506332E+02 -0.35680057320E+03  0.36632247010E+03  0.47000000000E+01 0.  1.
         13    1    6    6    0    0 -0.41778201858E+02  0.11797416290E+02 -0.12472323273E+03  0.13206241693E+03  0.00000000000E+00 0. -1.
        -14    1    6    6    0    0 -0.44417216692E+02 -0.74181492831E+02 -0.14590109545E+03  0.16959632270E+03  0.00000000000E+00 0.  1.
</event>
<event>
12    1  0.8297444E-002  0.3221574E+03  0.7818608E-02  0.1074667E+00
         21   -1    0    0  501  502  0.00000000000E+00  0.00000000000E+00  0.12441859566E+03  0.12441859566E+03  0.00000000000E+00 0.  1.
         21   -1    0    0  502  503 -0.00000000000E+00 -0.00000000000E+00 -0.12411035276E+04  0.12411035276E+04  0.00000000000E+00 0.  1.
         -6    2    1    2    0  503 -0.76789369307E+02  0.26131074690E+03 -0.94939463117E+03  0.10025644901E+04  0.17206242330E+03 0.  0.
        -24    2    3    3    0    0 -0.11893775947E+03  0.20262617157E+03 -0.69484739159E+03  0.73791991084E+03  0.80680488243E+02 0.  0.
          6    2    1    2  501    0  0.76789369307E+02 -0.26131074690E+03 -0.16729030077E+03  0.36295763313E+03  0.17196594147E+03 0.  0.
         24    2    5    5    0    0  0.11460420452E+03 -0.24010553366E+03 -0.14486463419E+03  0.31392067408E+03  0.82314253870E+02 0.  0.
          5    1    5    5  501    0 -0.37814835210E+02 -0.21205213249E+02 -0.22425666577E+02  0.49036959045E+02  0.47000000000E+01 0. -1.
        -13    1    6    6    0    0  0.36357922469E+02 -0.13839180728E+03 -0.41055215127E+02  0.14886141722E+03  0.00000000000E+00 0.  1.
         14    1    6    6    0    0  0.78246282049E+02 -0.10171372638E+03 -0.10380941907E+03  0.16505925686E+03  0.00000000000E+00 0. -1.
         -5    1    3    3    0  503  0.42148390161E+02  0.58684575330E+02 -0.25454723958E+03  0.26464457930E+03  0.47000000000E+01 0.  1.
         11    1    4    4    0    0  0.54934149062E+01  0.30337017381E+02 -0.47946748470E+02  0.57003534274E+02  0.00000000000E+00 0. -1.
        -12    1    4    4    0    0 -0.12443117437E+03  0.17228915419E+03 -0.64690064312E+03  0.68091637657E+03  0.00000000000E+00 0.  1.
</event>
<event>
12    1  0.8297444E-002  0.1775478E+03  0.7818608E-02  0.1170516E+00
         21   -1    0    0  503  502  0.00000000000E+00  0.00000000000E+00  0.36639583252E+02  0.36639583252E+02  0.00000000000E+00 0. -1.
         21   -1    0    0  501  503 -0.00000000000E+00 -0.00000000000E+00 -0.85612070462E+03  0.85612070462E+03  0.00000000000E+00 0. -1.
          6    2    1    2  501    0  0.13139039826E+02 -0.38983881974E+02 -0.38672962002E+03  0.42500278424E+03  0.17139191984E+03 0.  0.
         24    2    3    3    0    0 -0.67933636749E+01 -0.59849160313E+02 -0.38282887888E+03  0.39550759258E+03  0.78995148600E+02 0.  0.
         -6    2    1    2    0  502 -0.13139039826E+02  0.38983881974E+02 -0.43275150135E+03  0.46775750363E+03  0.17271607588E+03 0.  0.
        -24    2    5    5    0    0  0.70582909304E+00 -0.12224146865E+02 -0.39235387844E+03  0.40091439966E+03  0.81491483984E+02 0.  0.
          5    1    3    3  501    0  0.19932403501E+02  0.20865278339E+02 -0.39007411407E+01  0.29495191658E+02  0.47000000000E+01 0. -1.
        -13    1    4    4    0    0  0.33723956993E+02 -0.15924191677E+02 -0.19021714857E+03  0.19383871844E+03  0.00000000000E+00 0.  1.
         14    1    4    4    0    0 -0.40517320668E+02 -0.43924968636E+02 -0.19261173031E+03  0.20166887414E+03  0.00000000000E+00 0. -1.
         -5    1    5    5    0  502 -0.13844868919E+02  0.51208028839E+02 -0.40397622902E+02  0.66843103976E+02  0.47000000000E+01 0.  1.
         11    1    6    6    0    0  0.33905318680E+02  0.16957380577E+02 -0.19816003037E+03  0.20175361465E+03  0.00000000000E+00 0. -1.
        -12    1    6    6    0    0 -0.33199489586E+02 -0.29181527442E+02 -0.19419384808E+03  0.19916078500E+03  0.00000000000E+00 0.  1.
</event>
<event>
12    1  0.8297444E-002  0.2087336E+03  0.7818608E-02  0.1142574E+00
         21   -1    0    0  503  502  0.00000000000E+00  0.00000000000E+00  0.55939759334E+03  0.55939759334E+03  0.00000000000E+00 0.  1.
         21   -1    0    0  501  503 -0.00000000000E+00 -0.00000000000E+00 -0.86161431218E+02  0.86161431218E+02  0.00000000000E+00 0.  1.
          6    2    1    2  501    0 -0.21052044790E+02 -0.11574859102E+03  0.13658175490E+03  0.24944799894E+03  0.17242042654E+03 0.  0.
         24    2    3    3    0    0 -0.71833851783E+02 -0.37656134772E+02  0.89658074002E+02  0.14503944817E+03  0.80123557984E+02 0.  0.
         -6    2    1    2    0  502  0.21052044790E+02  0.11574859102E+03  0.33665440723E+03  0.39611102563E+03  0.17241470298E+03 0.  0.
        -24    2    5    5    0    0 -0.16976279142E+02  0.57882283233E+01  0.75354102934E+02  0.11003870293E+03  0.78157390399E+02 0.  0.
          5    1    3    3  501    0  0.50781806993E+02 -0.78092456247E+02  0.46923680893E+02  0.10440855076E+03  0.47000000000E+01 0. -1.
        -13    1    4    4    0    0 -0.49444015607E+02 -0.18148668050E+02  0.22421970497E+01  0.52717286339E+02  0.00000000000E+00 0.  1.
         14    1    4    4    0    0 -0.22389836176E+02 -0.19507466722E+02  0.87415876953E+02  0.92322161832E+02  0.00000000000E+00 0. -1.
         -5    1    5    5    0  502  0.38028323931E+02  0.10996036270E+03  0.26130030430E+03  0.28607232269E+03  0.47000000000E+01 0.  1.
         13    1    6    6    0    0  0.37335857595E+01 -0.15128027398E+02  0.78870454962E+02  0.80394934800E+02  0.00000000000E+00 0. -1.
        -14    1    6    6    0    0 -0.20709864901E+02  0.20916255721E+02 -0.35163520282E+01  0.29643768135E+02  0.00000000000E+00 0.  1.
</event>
<event>
12    1  0.8297444E-002  0.2367570E+03  0.7818608E-02  0.1122134E+00
         21   -1    0    0  501  502  0.00000000000E+00  0.00000000000E+00  0.34880583701E+03  0.34880583701E+03  0.00000000000E+00 0. -1.
         21   -1    0    0  502  503 -0.00000000000E+00 -0.00000000000E+00 -0.16014617856E+03  0.16014617856E+03  0.00000000000E+00 0.  1.
         -6    2    1    2    0  503  0.11427097810E+03  0.11116529027E+03  0.10060492065E+03  0.25724548815E+03  0.17503803277E+03 0.  0.
        -24    2    3    3    0    0  0.72621027136E+02  0.11630978208E+03  0.12882837747E+03  0.20645338516E+03  0.84996884717E+02 0.  0.
          6    2    1    2  501    0 -0.11427097810E+03 -0.11116529027E+03  0.88054737792E+02  0.25170652743E+03  0.17374395214E+03 0.  0.
         24    2    5    5    0    0 -0.52161095500E+02 -0.13197387774E+03  0.26218966107E+02  0.16150460124E+03  0.72514948436E+02 0.  0.
          5    1    5    5  501    0 -0.62109882599E+02  0.20808587470E+02  0.61835771685E+02  0.90201926193E+02  0.47000000000E+01 0. -1.
        -13    1    6    6    0    0 -0.27275688394E+02 -0.23404283821E+02 -0.19746454288E+02  0.41007878944E+02  0.00000000000E+00 0.  1.
         14    1    6    6    0    0 -0.24885407107E+02 -0.10856959392E+03  0.45965420395E+02  0.12049672229E+03  0.00000000000E+00 0. -1.
         -5    1    3    3    0  503  0.41649950964E+02 -0.51444918048E+01 -0.28223456818E+02  0.50792102988E+02  0.47000000000E+01 0.  1.
         11    1    4    4    0    0  0.20183524898E+02  0.10563138523E+03  0.91579776541E+02  0.14125232634E+03  0.00000000000E+00 0. -1.
        -12    1    4    4    0    0  0.52437502238E+02  0.10678396842E+02  0.37248600932E+02  0.65201058822E+02  0.00000000000E+00 0.  1.
</event>
<event>
12    1  0.8297444E-002  0.2283754E+03  0.7818608E-02  0.1127950E+00
         21   -1    0    0  503  502  0.00000000000E+00  0.00000000000E+00  0.16444178087E+03  0.16444178087E+03  0.00000000000E+00 0. -1.
         21   -1    0    0  501  503 -0.00000000000E+00 -0.00000000000E+00 -0.55556923690E+03  0.55556923690E+03  0.00000000000E+00 0. -1.
          6    2    1    2  501    0 -0.13422914513E+03 -0.72217981683E+02 -0.43223390554E+03  0.48885731926E+03  0.17006595548E+03 0.  0.
         24    2    3    3    0    0 -0.66203183489E+02  0.27803636451E+02 -0.19964367664E+03  0.22665098804E+03  0.79731857202E+02 0.  0.
         -6    2    1    2    0  502  0.13422914513E+03  0.72217981683E+02  0.41106449518E+02  0.23115369851E+03  0.16884724416E+03 0.  0.
        -24    2    5    5    0    0  0.20809213822E+02  0.92835600892E+02 -0.44677530322E+01  0.10710425281E+03  0.48988651543E+02 0.  0.
          5    1    3    3  501    0 -0.68025961644E+02 -0.10002161813E+03 -0.23259022891E+03  0.26220633123E+03  0.47000000000E+01 0. -1.
        -11    1    4    4    0    0 -0.76494703621E+02  0.40743369713E+00 -0.16029676307E+03  0.17761378869E+03  0.00000000000E+00 0.  1.
         12    1    4    4    0    0  0.10291520132E+02  0.27396202754E+02 -0.39346913568E+02  0.49037199342E+02  0.00000000000E+00 0. -1.
         -5    1    5    5    0  502  0.11341993131E+03 -0.20617619209E+02  0.45574202550E+02  0.12404944570E+03  0.47000000000E+01 0.  1.
         13    1    6    6    0    0 -0.33372697693E+01  0.29574934402E+02 -0.22174527481E+02  0.37115007522E+02  0.00000000000E+00 0. -1.
        -14    1    6    6    0    0  0.24146483591E+02  0.63260666490E+02  0.17706774449E+02  0.69989245288E+02  0.00000000000E+00 0.  1.
</event>
<event>
12    1  0.8297444E-002  0.2409386E+03  0.7818608E-02  0.1119187E+00
         21   -1    0    0  503  502  0.00000000000E+00  0.00000000000E+00  0.24346265296E+03  0.24346265296E+03  0.00000000000E+00 0. -1.
         21   -1    0    0  501  503 -0.00000000000E+00 -0.00000000000E+00 -0.44251840578E+03  0.44251840578E+03  0.00000000000E+00 0. -1.
          6    2    1    2  501    0  0.46824744823E+02 -0.16166610107E+03 -0.33252519674E+03  0.41063900436E+03  0.17240330760E+03 0.  0.
         24    2    3    3    0    0  0.19272656069E+02 -0.61449039956E+01 -0.10974542872E+03  0.13751105747E+03  0.80349465989E+02 0.  0.
         -6    2    1    2    0  502 -0.46824744823E+02  0.16166610107E+03  0.13346944391E+03  0.27534205438E+03  0.17225176194E+03 0.  0.
        -24    2    5    5    0    0  0.92595297234E+01  0.13553861964E+03  0.14223618115E+03  0.21267598048E+03  0.80891811308E+02 0.  0.
          5    1    3    3  501    0  0.27552088754E+02 -0.15552119707E+03 -0.22277976802E+03  0.27312794689E+03  0.47000000000E+01 0. -1.
        -11    1    4    4    0    0  0.24826124351E+02 -0.21058574033E+02 -0.66909451923E+01  0.33235052853E+02  0.00000000000E+00 0.  1.
         12    1    4    4    0    0 -0.55534682820E+01  0.14913670037E+02 -0.10305448352E+03  0.10427600462E+03  0.00000000000E+00 0. -1.
         -5    1    5    5    0  502 -0.56084274546E+02  0.26127481422E+02 -0.87667372443E+01  0.62666073906E+02  0.47000000000E+01 0.  1.
         11    1    6    6    0    0  0.16124785171E+02  0.14373185414E+03  0.11973181729E+03  0.18776198407E+03  0.00000000000E+00 0. -1.
        -12    1    6    6    0    0 -0.68652554474E+01 -0.81932344958E+01  0.22504363867E+02  0.24913996406E+02  0.00000000000E+00 0.  1.
</event>
<event>
12    1  0.8297444E-002  0.1820163E+03  0.7818608E-02  0.1166567E+00
         21   -1    0    0  501  502  0.00000000000E+00  0.00000000000E+00  0.39083189641E+03  0.39083189641E+03  0.00000000000E+00 0.  1.
         21   -1    0    0  502  503 -0.00000000000E+00 -0.00000000000E+00 -0.36417944122E+03  0.36417944122E+03  0.00000000000E+00 0.  1.
         -6    2    1    2    0  503  0.84486630489E+01  0.52900504598E+02 -0.31816011193E+03  0.36510670032E+03  0.17090114834E+03 0.  0.
        -24    2    3    3    0    0  0.18739316375E+02  0.60390738111E+02 -0.90480025240E+02  0.13702269602E+03  0.81181161785E+02 0.  0.
          6    2    1    2  501    0 -0.84486630489E+01 -0.52900504598E+02  0.34481256712E+03  0.38990463731E+03  0.17395423667E+03 0.  0.
         24    2    5    5    0    0 -0.64174681183E+02 -0.67385452587E+02  0.25374193170E+03  0.28205681188E+03  0.80696271879E+02 0.  0.
          5    1    5    5  501    0  0.55726018134E+02  0.14484947989E+02  0.91070635420E+02  0.10784782544E+03  0.47000000000E+01 0. -1.
        -11    1    6    6    0    0 -0.67545023651E+01 -0.31324523283E+02  0.17602975876E+03  0.17892267892E+03  0.00000000000E+00 0.  1.
         12    1    6    6    0    0 -0.57420178818E+02 -0.36060929304E+02  0.77712172944E+02  0.10313413296E+03  0.00000000000E+00 0. -1.
         -5    1    3    3    0  503 -0.10290653326E+02 -0.74902335131E+01 -0.22768008669E+03  0.22808400431E+03  0.47000000000E+01 0.  1.
         11    1    4    4    0    0  0.44066334179E+02  0.29525847341E+02 -0.21325174699E+02  0.57169752012E+02  0.00000000000E+00 0. -1.
        -12    1    4    4    0    0 -0.25327017804E+02  0.30864890770E+02 -0.69154850541E+02  0.79852944006E+02  0.00000000000E+00 0.  1.
</event>
<event>
12    1  0.8297444E-002  0.1987835E+03  0.7818608E-02  0.1150890E+00
         21   -1    0    0  503  502  0.00000000000E+00  0.00000000000E+00  0.14691507238E+04  0.14691507238E+04  0.00000000000E+00 0. -1.
         21   -1    0    0  501  503 -0.00000000000E+00 -0.00000000000E+00 -0.31488600914E+02  0.31488600914E+02  0.00000000000E+00 0.  1.
          6    2    1    2  501    0 -0.94753606460E+02 -0.31585653195E+02  0.42904270797E+03  0.47261792638E+03  0.17121378346E+03 0.  0.
         24    2    3    3    0    0 -0.12261133700E+03 -0.44215216430E+01  0.25595378778E+03  0.29514734435E+03  0.80910590050E+02 0.  0.
         -6    2    1    2    0  502  0.94753606460E+02  0.31585653195E+02  0.10086194149E+04  0.10280213983E+04  0.17186905441E+03 0.  0.
        -24    2    5    5    0    0  0.20242379849E+02  0.73985102373E+02  0.64044710377E+03  0.64997037417E+03  0.80034025567E+02 0.  0.
          5    1    3    3  501    0  0.27857730541E+02 -0.27164131552E+02  0.17308892019E+03  0.17747058203E+03  0.47000000000E+01 0. -1.
        -13    1    4    4    0    0 -0.21135147922E+02 -0.27273647835E+02  0.27481293706E+02  0.44110858614E+02  0.00000000000E+00 0.  1.
         14    1    4    4    0    0 -0.10147618908E+03  0.22852126192E+02  0.22847249408E+03  0.25103648574E+03  0.00000000000E+00 0. -1.
         -5    1    5    5    0  502  0.74511226611E+02 -0.42399449178E+02  0.36817231115E+03  0.37805102418E+03  0.47000000000E+01 0.  1.
         13    1    6    6    0    0 -0.40506850854E+01 -0.90329231706E+01  0.24380774424E+03  0.24400864309E+03  0.00000000000E+00 0. -1.
        -14    1    6    6    0    0  0.24293064934E+02  0.83018025544E+02  0.39663935953E+03  0.40596173107E+03  0.00000000000E+00 0.  1.
</event>
<event>
12    1  0.8297444E-002  0.1801005E+03  0.7818608E-02  0.1167725E+00
         21   -1    0    0  501  502  0.00000000000E+00  0.00000000000E+00  0.18970298113E+04  0.18970298113E+04  0.00000000000E+00 0. -1.
         21   -1    0    0  502  503 -0.00000000000E+00 -0.00000000000E+00 -0.19648592998E+02  0.19648592998E+02  0.00000000000E+00 0. -1.
         -6    2    1    2    0  503  0.54007421240E+02 -0.95594604485E+01  0.12842691051E+04  0.12968250655E+04  0.17146408173E+03 0.  0.
        -24    2    3    3    0    0  0.89022347423E+02  0.28384252295E+02  0.73921648701E+03  0.74931231049E+03  0.79355402268E+02 0.  0.
          6    2    1    2  501    0 -0.54007421240E+02  0.95594604485E+01  0.59311211312E+03  0.61985333873E+03  0.17154590632E+03 0.  0.
         24    2    5    5    0    0  0.25841649909E+02  0.36037732637E+02  0.39100916427E+03  0.40089063644E+03  0.76541667073E+02 0.  0.
          5    1    5    5  501    0 -0.79849071149E+02 -0.26478272189E+02  0.20210294886E+03  0.21896270230E+03  0.47000000000E+01 0. -1.
        -13    1    6    6    0    0  0.42987020890E+02 -0.56539214657E+01  0.19627810023E+03  0.20100980927E+03  0.00000000000E+00 0.  1.
         14    1    6    6    0    0 -0.17145370980E+02  0.41691654103E+02  0.19473106403E+03  0.19988082716E+03  0.00000000000E+00 0. -1.
         -5    1    3    3    0  503 -0.35014926184E+02 -0.37943712744E+02  0.54505261813E+03  0.54751275503E+03  0.47000000000E+01 0.  1.
         13    1    4    4    0    0  0.72044872526E+02 -0.16121903158E+02  0.39832912291E+03  0.40511290966E+03  0.00000000000E+00 0. -1.
        -14    1    4    4    0    0  0.16977474897E+02  0.44506155454E+02  0.34088736410E+03  0.34419940083E+03  0.00000000000E+00 0.  1.
</event>
<event>
12    1  0.8297444E-002  0.2035930E+03  0.7818608E-02  0.1147695E+00
         21   -1    0    0  501  502  0.00000000000E+00  0.00000000000E+00  0.44788001310E+03  0.44788001310E+03  0.00000000000E+00 0.  1.
         21   -1    0    0  502  503 -0.00000000000E+00 -0.00000000000E+00 -0.11032532948E+03  0.11032532948E+03  0.00000000000E+00 0.  1.
         -6    2    1    2    0  503 -0.37545469180E+02 -0.10241537827E+03  0.48853344887E+02  0.20493693326E+03  0.16647499916E+03 0.  0.
        -24    2    3    3    0    0 -0.74994134512E+02 -0.11259435959E+03  0.29982700163E+02  0.16152949809E+03  0.83013290636E+02 0.  0.
          6    2    1    2  501    0  0.37545469180E+02  0.10241537827E+03  0.28870133873E+03  0.35326840932E+03  0.17190559642E+03 0.  0.
         24    2    5    5    0    0 -0.14796189618E+02  0.73130645684E+02  0.26841745699E+03  0.28978005869E+03  0.79734137163E+02 0.  0.
          5    1    5    5  501    0  0.52341658798E+02  0.29284732584E+02  0.20283881740E+02  0.63488350638E+02  0.47000000000E+01 0. -1.
        -13    1    6    6    0    0  0.24837692559E+02  0.97709605723E+01  0.31149651404E+02  0.41020524433E+02  0.00000000000E+00 0.  1.
         14    1    6    6    0    0 -0.39633882177E+02  0.63359685112E+02  0.23726780559E+03  0.24875953425E+03  0.00000000000E+00 0. -1.
         -5    1    3    3    0  503  0.37448665332E+02  0.10178981320E+02  0.18870644724E+02  0.43407435172E+02  0.47000000000E+01 0.  1.
         13    1    4    4    0    0  0.87621329700E+01 -0.44687441060E+01  0.22497886782E+02  0.24554013068E+02  0.00000000000E+00 0. -1.
        -14    1    4    4    0    0 -0.83756267482E+02 -0.10812561548E+03  0.74848133805E+01  0.13697548502E+03  0.00000000000E+00 0.  1.
</event>
<event>
12    1  0.8297444E-002  0.2562721E+03  0.7818608E-02  0.1109605E+00
         21   -1    0    0  501  502  0.00000000000E+00  0.00000000000E+00  0.12990430565E+04  0.12990430565E+04  0.00000000000E+00 0. -1.
         21   -1    0    0  502  503 -0.00000000000E+00 -0.00000000000E+00 -0.58167473138E+02  0.58167473138E+02  0.00000000000E+00 0. -1.
         -6    2    1    2    0  503  0.15880861964E+03 -0.10100865654E+03  0.36947166615E+03  0.44890431273E+03  0.17199663814E+03 0.  0.
        -24    2    3    3    0    0  0.11724107931E+03 -0.13723565754E+03  0.26236968215E+03  0.32835066912E+03  0.79982594473E+02 0.  0.
          6    2    1    2  501    0 -0.15880861964E+03  0.10100865654E+03  0.87140391726E+03  0.90830621696E+03  0.17393237302E+03 0.  0.
         24    2    5    5    0    0 -0.70857509793E+02  0.21059192869E+02  0.62742504227E+03  0.63687464933E+03  0.80516203299E+02 0.  0.
          5    1    5    5  501    0 -0.87951109847E+02  0.79949463667E+02  0.24397887499E+03  0.27143156762E+03  0.47000000000E+01 0. -1.
        -13    1    6    6    0    0 -0.33724299505E+02 -0.15075778237E+02  0.94920938599E+02  0.10185574138E+03  0.00000000000E+00 0.  1.
         14    1    6    6    0    0 -0.37133210288E+02  0.36134971106E+02  0.53250410367E+03  0.53501890796E+03  0.00000000000E+00 0. -1.
         -5    1    3    3    0  503  0.41567540327E+02  0.36227001008E+02  0.10710198400E+03  0.12055364361E+03  0.47000000000E+01 0.  1.
         13    1    4    4    0    0 -0.25878486478E+01 -0.37318990947E+02  0.80234397539E+02  0.88526620823E+02  0.00000000000E+00 0. -1.
        -14    1    4    4    0    0  0.11982892796E+03 -0.99916666597E+02  0.18213528461E+03  0.23982404829E+03  0.00000000000E+00 0.  1.
</event>
<event>
12    1  0.8297444E-002  0.2478224E+03  0.7818608E-02  0.1114759E+00
         21   -1    0    0  503  502  0.00000000000E+00  0.00000000000E+00  0.22031090062E+03  0.22031090062E+03  0.00000000000E+00 0. -1.
         21   -1    0    0  501  503 -0.00000000000E+00 -0.00000000000E+00 -0.44007512778E+03  0.44007512778E+03  0.00000000000E+00 0. -1.
          6    2    1    2  501    0 -0.15174489326E+03 -0.95005191791E+02 -0.31003252891E+03  0.39663560359E+03  0.17072531726E+03 0.  0.
         24    2    3    3    0    0 -0.20549903846E+02 -0.82656242263E+02 -0.15311008757E+03  0.19166886385E+03  0.77716803341E+02 0.  0.
         -6    2    1    2    0  502  0.15174489326E+03  0.95005191791E+02  0.90268301746E+02  0.26375042481E+03  0.17135758283E+03 0.  0.
        -24    2    5    5    0    0  0.58342601351E+02  0.89620596375E+02  0.10423268816E+03  0.16903993918E+03  0.79210714740E+02 0.  0.
          5    1    3    3  501    0 -0.13119498941E+03 -0.12348949528E+02 -0.15692244134E+03  0.20496673973E+03  0.47000000000E+01 0. -1.
        -11    1    4    4    0    0  0.21783357862E+01 -0.17397022958E+02 -0.10738478005E+03  0.10880667508E+03  0.00000000000E+00 0.  1.
         12    1    4    4    0    0 -0.22728239633E+02 -0.65259219305E+02 -0.45725307521E+02  0.82862188777E+02  0.00000000000E+00 0. -1.
         -5    1    5    5    0  502  0.93402291908E+02  0.53845954163E+01 -0.13964386414E+02  0.94710485636E+02  0.47000000000E+01 0.  1.
         11    1    6    6    0    0  0.57050496638E+02  0.26667549954E+02  0.79427323666E+02  0.10136378610E+03  0.00000000000E+00 0. -1.
        -12    1    6    6    0    0  0.12921047124E+01  0.62953046421E+02  0.24805364494E+02  0.67676153081E+02  0.00000000000E+00 0.  1.
</event>
<event>
12    1  0.8297444E-002  0.1813777E+03  0.7818608E-02  0.1166598E+00
         21   -1    0    0  503  502  0.00000000000E+00  0.00000000000E+00  0.29241483075E+03  0.29241483075E+03  0.00000000000E+00 0.  1.
         21   -1    0    0  501  503 -0.00000000000E+00 -0.00000000000E+00 -0.15668632563E+03  0.15668632563E+03  0.00000000000E+00 0.  1.
          6    2    1    2  501    0  0.39864939478E+02 -0.38943460061E+02 -0.51731331688E+02  0.18861070805E+03  0.17260377178E+03 0.  0.
         24    2    3    3    0    0 -0.30660660360E+01  0.13345937757E+02  0.26294321621E+02  0.85231092394E+02  0.79908904045E+02 0.  0.
         -6    2    1    2    0  502 -0.39864939478E+02  0.38943460061E+02  0.18745983681E+03  0.26049044833E+03  0.17207055754E+03 0.  0.
        -24    2    5    5    0    0  0.26013576522E+02  0.54700043746E+02  0.64997867290E+02  0.12046447653E+03  0.81352113700E+02 0.  0.
          5    1    3    3  501    0  0.42931005514E+02 -0.52289397818E+02 -0.78025653309E+02  0.10337961566E+03  0.47000000000E+01 0. -1.
        -11    1    4    4    0    0  0.27447756225E+02 -0.20065533792E+02  0.20268914318E+02  0.39583252213E+02  0.00000000000E+00 0.  1.
         12    1    4    4    0    0 -0.30513822261E+02  0.33411471549E+02  0.60254073033E+01  0.45647840181E+02  0.00000000000E+00 0. -1.
         -5    1    5    5    0  502 -0.65878516001E+02 -0.15756583685E+02  0.12246196952E+03  0.14002597180E+03  0.47000000000E+01 0.  1.
         13    1    6    6    0    0  0.40543759976E+02  0.52889844040E+01  0.46869408487E+01  0.41155039102E+02  0.00000000000E+00 0. -1.
        -14    1    6    6    0    0 -0.14530183453E+02  0.49411059342E+02  0.60310926441E+02  0.79309437425E+02  0.00000000000E+00 0.  1.
</event>
<event>
12    1  0.8297444E-002  0.2099764E+03  0.7818608E-02  0.1141599E+00
         21   -1    0    0  501  502  0.00000000000E+00  0.00000000000E+00  0.77949868927E+03  0.77949868927E+03  0.00000000000E+00 0. -1.
         21   -1    0    0  502  503 -0.00000000000E+00 -0.00000000000E+00 -0.66243213949E+02  0.66243213949E+02  0.00000000000E+00 0. -1.
         -6    2    1    2    0  503 -0.37805638660E+02 -0.11376331142E+03  0.19475266587E+03  0.28633574139E+03  0.17230263664E+03 0.  0.
        -24    2    3    3    0    0 -0.38015032681E+01 -0.14501612339E+03  0.14704323902E+03  0.21976773939E+03  0.75046769851E+02 0.  0.
          6    2    1    2  501    0  0.37805638660E+02  0.11376331142E+03  0.51850280945E+03  0.55940616183E+03  0.17239122119E+03 0.  0.
         24    2    5    5    0    0  0.89680405962E+02  0.94014314094E+02  0.34235750919E+03  0.37466236307E+03  0.79258789612E+02 0.  0.
          5    1    5    5  501    0 -0.51874767302E+02  0.19748997329E+02  0.17614530026E+03  0.18474379876E+03  0.47000000000E+01 0. -1.
        -13    1    6    6    0    0  0.22588134569E+02 -0.12293861418E+02  0.45107278743E+02  0.51923303511E+02  0.00000000000E+00 0.  1.
         14    1    6    6    0    0  0.67092271393E+02  0.10630817551E+03  0.29725023045E+03  0.32273905956E+03  0.00000000000E+00 0. -1.
         -5    1    3    3    0  503 -0.34004135392E+02  0.31252811968E+02  0.47709426855E+02  0.66568002002E+02  0.47000000000E+01 0.  1.
         11    1    4    4    0    0  0.14655420178E+02 -0.31440384642E+02  0.21664874665E+01  0.34755903023E+02  0.00000000000E+00 0. -1.
        -12    1    4    4    0    0 -0.18456923446E+02 -0.11357573875E+03  0.14487675155E+03  0.18501183637E+03  0.00000000000E+00 0.  1.
</event>
<event>
12    1  0.8297444E-002  0.2079141E+03  0.7818608E-02  0.1143667E+00
         21   -1    0    0  503  502  0.00000000000E+00  0.00000000000E+00  0.26251673189E+03  0.26251673189E+03  0.00000000000E+00 0. -1.
         21   -1    0    0  501  503 -0.00000000000E+00 -0.00000000000E+00 -0.87445463486E+03  0.87445463486E+03  0.00000000000E+00 0. -1.
          6    2    1    2  501    0 -0.84297237802E+02  0.76879454208E+02 -0.81845788305E+03  0.84392059284E+03  0.17120801942E+03 0.  0.
         24    2    3    3    0    0  0.46402167776E+01  0.51103976871E+02 -0.58930234078E+03  0.59671905843E+03  0.78506291392E+02 0.  0.
         -6    2    1    2    0  502  0.84297237802E+02 -0.76879454208E+02  0.20651998009E+03  0.29305077391E+03  0.17381535931E+03 0.  0.
        -24    2    5    5    0    0  0.96292016718E+02 -0.57422736134E+02  0.22463287111E+03  0.26351087850E+03  0.80053314696E+02 0.  0.
          5    1    3    3  501    0 -0.88937454579E+02  0.25775477337E+02 -0.22915554227E+03  0.24720153441E+03  0.47000000000E+01 0. -1.
        -13    1    4    4    0    0  0.30177807210E+02 -0.60038765533E+01 -0.22310285188E+03  0.22521462896E+03  0.00000000000E+00 0.  1.
         14    1    4    4    0    0 -0.25537590433E+02  0.57107853424E+02 -0.36619948890E+03  0.37150442948E+03  0.00000000000E+00 0. -1.
         -5    1    5    5    0  502 -0.11994778917E+02 -0.19456718074E+02 -0.18112891026E+02  0.29539895409E+02  0.47000000000E+01 0.  1.
         11    1    6    6    0    0  0.24820884093E+02 -0.54221219141E+02  0.62970516094E+02  0.86725444878E+02  0.00000000000E+00 0. -1.
        -12    1    6    6    0    0  0.71471132626E+02 -0.32015169929E+01  0.16166235502E+03  0.17678543362E+03  0.00000000000E+00 0.  1.
</event>
<event>
12    1  0.8297444E-002  0.1892522E+03  0.7818608E-02  0.1159512E+00
         21   -1    0    0  503  502  0.00000000000E+00  0.00000000000E+00  0.62124540135E+03  0.62124540135E+03  0.00000000000E+00 0. -1.
         21   -1    0    0  501  503 -0.00000000000E+00 -0.00000000000E+00 -0.17363590990E+03  0.17363590990E+03  0.00000000000E+00 0. -1.
          6    2    1    2  501    0  0.32263731345E+02  0.68765042779E+02 -0.10139782357E+03  0.21470426086E+03  0.17334019020E+03 0.  0.
         24    2    3    3    0    0 -0.14027890124E+02 -0.17629079664E+02 -0.22129564630E+02  0.88559877369E+02  0.82737948354E+02 0.  0.
         -6    2    1    2    0  502 -0.32263731345E+02 -0.68765042779E+02  0.54900731502E+03  0.58017705040E+03  0.17154240988E+03 0.  0.
        -24    2    5    5    0    0 -0.24221068227E+02 -0.25535272459E+02  0.52038176290E+03  0.52749868950E+03  0.78860496978E+02 0.  0.
          5    1    3    3  501    0  0.46291621469E+02  0.86394122443E+02 -0.79268258942E+02  0.12614438349E+03  0.47000000000E+01 0. -1.
        -13    1    4    4    0    0  0.26736351623E+02 -0.18639292502E+02  0.12654312906E+02  0.34962656624E+02  0.00000000000E+00 0.  1.
         14    1    4    4    0    0 -0.40764241747E+02  0.10102128374E+01 -0.34783877536E+02  0.53597220745E+02  0.00000000000E+00 0. -1.
         -5    1    5    5    0  502 -0.80426631179E+01 -0.43229770320E+02  0.28625552125E+02  0.52678360893E+02  0.47000000000E+01 0.  1.
         11    1    6    6    0    0  0.47114301325E+01 -0.48589782665E+02  0.32491148578E+03  0.32855842424E+03  0.00000000000E+00 0. -1.
        -12    1    6    6    0    0 -0.28932498360E+02  0.23054510206E+02  0.19547027712E+03  0.19894026526E+03  0.00000000000E+00 0.  1.
</event>
<event>
12    1  0.8297444E-002  0.2107273E+03  0.7818608E-02  0.1141643E+00
         21   -1    0    0  503  502  0.00000000000E+00  0.00000000000E+00  0.24518557981E+03  0.24518557981E+03  0.00000000000E+00 0.  1.
         21   -1    0    0  501  503 -0.00000000000E+00 -0.00000000000E+00 -0.18131657621E+03  0.18131657621E+03  0.00000000000E+00 0.  1.
          6    2    1    2  501    0 -0.87165394774E+02 -0.76082558161E+02  0.59166661123E+02  0.21572237715E+03  0.17218910683E+03 0.  0.
         24    2    3    3    0    0 -0.49886895265E+02 -0.14444119750E+01 -0.29571450914E+02  0.93832747075E+02  0.73751780110E+02 0.  0.
         -6    2    1    2    0  502  0.87165394774E+02  0.76082558161E+02  0.47023424704E+01  0.21077977887E+03  0.17612393777E+03 0.  0.
        -24    2    5    5    0    0  0.66901082130E+02 -0.62562699740E+00  0.54250501462E+02  0.11712136709E+03  0.79360894159E+02 0.  0.
          5    1    3    3  501    0 -0.37278499509E+02 -0.74638146186E+02  0.88738112036E+02  0.12188963007E+03  0.47000000000E+01 0. -1.
        -13    1    4    4    0    0 -0.35350978321E+02  0.18124817523E+02  0.15458174329E+02  0.42628110819E+02  0.00000000000E+00 0.  1.
         14    1    4    4    0    0 -0.14535916944E+02 -0.19569229498E+02 -0.45029625243E+02  0.51204636255E+02  0.00000000000E+00 0. -1.
         -5    1    5    5    0  502  0.20264312643E+02  0.76708185159E+02 -0.49548158992E+02  0.93658411778E+02  0.47000000000E+01 0.  1.
         11    1    6    6    0    0  0.22909811022E+02  0.36914609904E+02  0.10751265496E+02  0.44756424960E+02  0.00000000000E+00 0. -1.
        -12    1    6    6    0    0  0.43991271108E+02 -0.37540236902E+02  0.43499235966E+02  0.72364942134E+02  0.00000000000E+00 0.  1.
</event>
<event>
12    1  0.8297444E-002  0.1862939E+03  0.7818608E-02  0.1161947E+00
         21   -1    0    0  503  502  0.00000000000E+00  0.00000000000E+00  0.83161649632E+02  0.83161649632E+02  0.00000000000E+00 0. -1.
         21   -1    0    0  501  503 -0.00000000000E+00 -0.00000000000E+00 -0.42624101837E+03  0.42624101837E+03  0.00000000000E+00 0. -1.
          6    2    1    2  501    0  0.69892912603E+02 -0.42605005705E+01 -0.21012132558E+03  0.28052877368E+03  0.17216924900E+03 0.  0.
         24    2    3    3    0    0 -0.59832596504E+01  0.15985248537E+02 -0.17754859121E+03  0.19538092052E+03  0.79742550112E+02 0.  0.
         -6    2    1    2    0  502 -0.69892912603E+02  0.42605005705E+01 -0.13295804316E+03  0.22887389432E+03  0.17263327363E+03 0.  0.
        -24    2    5    5    0    0 -0.18731713141E+02 -0.51243796698E+02 -0.11655292655E+03  0.15148259509E+03  0.79909875181E+02 0.  0.
          5    1    3    3  501    0  0.75876172253E+02 -0.20245749107E+02 -0.32572734376E+02  0.85147853158E+02  0.47000000000E+01 0. -1.
        -11    1    4    4    0    0 -0.94255452507E+01  0.33798778892E+01  0.57970507237E+01  0.11570232276E+02  0.00000000000E+00 0.  1.
         12    1    4    4    0    0  0.34422856004E+01  0.12605370648E+02 -0.18334564193E+03  0.18381068825E+03  0.00000000000E+00 0. -1.
         -5    1    5    5    0  502 -0.51161199462E+02  0.55504297268E+02 -0.16405116607E+02  0.77391299230E+02  0.47000000000E+01 0.  1.
         11    1    6    6    0    0 -0.28651219630E+02  0.12789026552E+02 -0.30453064269E+02  0.43724600739E+02  0.00000000000E+00 0. -1.
        -12    1    6    6    0    0  0.99195064885E+01 -0.64032823250E+02 -0.86099862283E+02  0.10775799436E+03  0.00000000000E+00 0.  1.
</event>
<event>
12    1  0.8297444E-002  0.1815784E+03  0.7818608E-02  0.1166425E+00
         21   -1    0    0  503  502  0.00000000000E+00  0.00000000000E+00  0.21463681860E+03  0.21463681860E+03  0.00000000000E+00 0.  1.
         21   -1    0    0  501  503 -0.00000000000E+00 -0.00000000000E+00 -0.15493089435E+03  0.15493089435E+03  0.00000000000E+00 0.  1.
          6    2    1    2  501    0 -0.55745232563E+02 -0.18168645602E+02  0.98057773297E+01  0.18125745062E+03  0.17123223849E+03 0.  0.
         24    2    3    3    0    0 -0.74394203266E+02 -0.26528570968E+02 -0.46893858071E+02  0.12080407094E+03  0.78462265278E+02 0.  0.
         -6    2    1    2    0  502  0.55745232563E+02  0.18168645602E+02  0.49900146921E+02  0.18831026234E+03  0.17185197003E+03 0.  0.
        -24    2    5    5    0    0  0.66717622228E+02  0.63870732858E+02  0.31698882830E+02  0.13768961311E+03  0.97071616618E+02 0.  0.
          5    1    3    3  501    0  0.18648970703E+02  0.83599253662E+01  0.56699635401E+02  0.60453379682E+02  0.47000000000E+01 0. -1.
        -13    1    4    4    0    0 -0.75104110773E+02  0.50426194398E+01 -0.47877889534E+02  0.89209572200E+02  0.00000000000E+00 0.  1.
         14    1    4    4    0    0  0.70990750691E+00 -0.31571190408E+02  0.98403146306E+00  0.31594498736E+02  0.00000000000E+00 0. -1.
         -5    1    5    5    0  502 -0.10972389665E+02 -0.45702087256E+02  0.18201264091E+02  0.50620649235E+02  0.47000000000E+01 0.  1.
         11    1    6    6    0    0  0.50879873965E+01  0.14622326230E+02 -0.32486552970E+02  0.35987166657E+02  0.00000000000E+00 0. -1.
        -12    1    6    6    0    0  0.61629634831E+02  0.49248406627E+02  0.64185435800E+02  0.10170244645E+03  0.00000000000E+00 0.  1.
</event>
<event>
12    1  0.8297444E-002  0.1996341E+03  0.7818608E-02  0.1152212E+00
         21   -1    0    0  503  502  0.00000000000E+00  0.00000000000E+00  0.36850720516E+02  0.36850720516E+02  0.00000000000E+00 0. -1.
         21   -1    0    0  501  503 -0.00000000000E+00 -0.00000000000E+00 -0.14264088120E+04  0.14264088120E+04  0.00000000000E+00 0. -1.
          6    2    1    2  501    0 -0.61858053106E+02 -0.47424347892E+02 -0.10940538428E+04  0.11121185208E+04  0.18378875390E+03 0.  0.
         24    2    3    3    0    0 -0.72505318037E+02 -0.59479947907E+02 -0.10870285504E+04  0.10939485876E+04  0.79357151770E+02 0.  0.
         -6    2    1    2    0  502  0.61858053106E+02  0.47424347892E+02 -0.29550424873E+03  0.35114101167E+03  0.17292125824E+03 0.  0.
        -24    2    5    5    0    0  0.10737828062E+03  0.47334231882E+02 -0.22974930474E+03  0.27102920297E+03  0.83075033428E+02 0.  0.
          5    1    3    3  501    0  0.10647264931E+02  0.12055600015E+02 -0.70252923507E+01  0.18169933265E+02  0.47000000000E+01 0. -1.
        -13    1    4    4    0    0  0.93708078811E+01 -0.23087803784E+02 -0.10839933633E+03  0.11122623270E+03  0.00000000000E+00 0.  1.
         14    1    4    4    0    0 -0.81876125918E+02 -0.36392144123E+02 -0.97862921408E+03  0.98272235489E+03  0.00000000000E+00 0. -1.
         -5    1    5    5    0  502 -0.45520227511E+02  0.90116010321E-01 -0.65754943991E+02  0.80111808697E+02  0.47000000000E+01 0.  1.
         13    1    6    6    0    0  0.54348636907E+02  0.63058981965E+02 -0.10089699753E+03  0.13080677983E+03  0.00000000000E+00 0. -1.
        -14    1    6    6    0    0  0.53029643709E+02 -0.15724750083E+02 -0.12885230721E+03  0.14022242314E+03  0.00000000000E+00 0.  1.
</event>
<event>
12    1  0.8297444E-002  0.2644294E+03  0.7818608E-02  0.1104651E+00
         21   -1    0    0  503  502  0.00000000000E+00  0.00000000000E+00  0.58495191033E+02  0.58495191033E+02  0.00000000000E+00 0. -1.
         21   -1    0    0  501  503 -0.00000000000E+00 -0.00000000000E+00 -0.12272598128E+04  0.12272598128E+04  0.00000000000E+00 0.  1.
          6    2    1    2  501    0  0.17998047516E+03  0.86853342669E+02 -0.69581284226E+03  0.74436442243E+03  0.17316583770E+03 0.  0.
         24    2    3    3    0    0  0.10912015283E+03  0.11902201634E+03 -0.39977411920E+03  0.43823205825E+03  0.78450891424E+02 0.  0.
         -6    2    1    2    0  502 -0.17998047516E+03 -0.86853342669E+02 -0.47295177950E+03  0.54139058140E+03  0.17170876892E+03 0.  0.
        -24    2    5    5    0    0 -0.84060660798E+02 -0.11513124172E+03 -0.27518172220E+03  0.31972566328E+03  0.78601030594E+02 0.  0.
          5    1    3    3  501    0  0.70860322325E+02 -0.32168673674E+02 -0.29603872306E+03  0.30613236418E+03  0.47000000000E+01 0. -1.
        -11    1    4    4    0    0  0.77030894769E+02  0.26756530975E+02 -0.16955326893E+03  0.18814351358E+03  0.00000000000E+00 0.  1.
         12    1    4    4    0    0  0.32089258066E+02  0.92265485368E+02 -0.23022085027E+03  0.25008854467E+03  0.00000000000E+00 0. -1.
         -5    1    5    5    0  502 -0.95919814361E+02  0.28277899056E+02 -0.19777005730E+03  0.22166491812E+03  0.47000000000E+01 0.  1.
         11    1    6    6    0    0 -0.15422022517E+02  0.30632238883E+01 -0.42774410572E+01  0.16294742130E+02  0.00000000000E+00 0. -1.
        -12    1    6    6    0    0 -0.68638638282E+02 -0.11819446561E+03 -0.27090428115E+03  0.30343092115E+03  0.00000000000E+00 0.  1.
</event>
<event>
12    1  0.8297444E-002  0.1900167E+03  0.7818608E-02  0.1158574E+00
         21   -1    0    0  503  502  0.00000000000E+00  0.00000000000E+00  0.19012280027E+03  0.19012280027E+03  0.00000000000E+00 0. -1.
         21   -1    0    0  501  503 -0.00000000000E+00 -0.00000000000E+00 -0.25841034616E+03  0.25841034616E+03  0.00000000000E+00 0. -1.
          6    2    1    2  501    0 -0.75740711971E+02  0.17143742521E+02 -0.15012214162E+03  0.24216315065E+03  0.17342367419E+03 0.  0.
         24    2    3    3    0    0 -0.77851735163E+02 -0.48632098524E+02 -0.80229411451E+02  0.14604862826E+03  0.80420579945E+02 0.  0.
         -6    2    1    2    0  502  0.75740711971E+02 -0.17143742521E+02  0.81834595722E+02  0.20636999578E+03  0.17280367689E+03 0.  0.
        -24    2    5    5    0    0  0.91990662694E+02 -0.10999625063E+02  0.11563690970E+03  0.16807512004E+03  0.79335221171E+02 0.  0.
          5    1    3    3  501    0  0.21110231917E+01  0.65775841044E+02 -0.69892730169E+02  0.96114522391E+02  0.47000000000E+01 0. -1.
        -11    1    4    4    0    0 -0.71917918772E+02 -0.14137641359E+02 -0.19318488340E+02  0.75797519323E+02  0.00000000000E+00 0.  1.
         12    1    4    4    0    0 -0.59338163908E+01 -0.34494457164E+02 -0.60910923111E+02  0.70251108932E+02  0.00000000000E+00 0. -1.
         -5    1    5    5    0  502 -0.16249950723E+02 -0.61441174582E+01 -0.33802313977E+02  0.38294875741E+02  0.47000000000E+01 0.  1.
         13    1    6    6    0    0  0.26633775400E+01  0.46696628617E+01  0.62972852823E+02  0.63201894938E+02  0.00000000000E+00 0. -1.
        -14    1    6    6    0    0  0.89327285154E+02 -0.15669287924E+02  0.52664056876E+02  0.10487322510E+03  0.00000000000E+00 0.  1.
</event>
<event>
12    1  0.8297444E-002  0.2158339E+03  0.7818608E-02  0.1137821E+00
         21   -1    0    0  501  502  0.00000000000E+00  0.00000000000E+00  0.56584924368E+02  0.56584924368E+02  0.00000000000E+00 0.  1.
         21   -1    0    0  502  503 -0.00000000000E+00 -0.00000000000E+00 -0.96997383036E+03  0.96997383036E+03  0.00000000000E+00 0.  1.
         -6    2    1    2    0  503 -0.82192516507E+02  0.91156608474E+02 -0.66300058270E+03  0.69598564969E+03  0.17251410054E+03 0.  0.
        -24    2    3    3    0    0 -0.14088586250E+02 -0.17888744194E+02 -0.31124690479E+03  0.32144356371E+03  0.77024888679E+02 0.  0.
          6    2    1    2  501    0  0.82192516507E+02 -0.91156608474E+02 -0.25038832330E+03  0.33057310503E+03  0.17753627317E+03 0.  0.
         24    2    5    5    0    0  0.90192507861E+02 -0.10303316705E+03 -0.26618632692E+03  0.30873919966E+03  0.75592398965E+02 0.  0.
          5    1    5    5  501    0 -0.79999913535E+01  0.11876558580E+02  0.15798003623E+02  0.21833905373E+02  0.47000000000E+01 0. -1.
        -11    1    6    6    0    0  0.22341770013E+02 -0.19687076705E+02 -0.10826464514E+02  0.31685138636E+02  0.00000000000E+00 0.  1.
         12    1    6    6    0    0  0.67850737848E+02 -0.83346090349E+02 -0.25535986240E+03  0.27705406102E+03  0.00000000000E+00 0. -1.
         -5    1    3    3    0  503 -0.68103930257E+02  0.10904535267E+03 -0.35175367791E+03  0.37454208599E+03  0.47000000000E+01 0.  1.
         13    1    4    4    0    0  0.21067588742E+02  0.16526245097E+02 -0.64449007402E+02  0.69789932135E+02  0.00000000000E+00 0. -1.
        -14    1    4    4    0    0 -0.35156174992E+02 -0.34414989291E+02 -0.24679789739E+03  0.25165363157E+03  0.00000000000E+00 0.  1.
</event>
<event>
12    1  0.8297444E-002  0.1915334E+03  0.7818608E-02  0.1157763E+00
         21   -1    0    0  501  502  0.00000000000E+00  0.00000000000E+00  0.12204839730E+03  0.12204839730E+03  0.00000000000E+00 0.  1.
         21   -1    0    0  502  503 -0.00000000000E+00 -0.00000000000E+00 -0.41050736878E+03  0.41050736878E+03  0.00000000000E+00 0.  1.
         -6    2    1    2    0  503 -0.47795859369E+02 -0.57547790997E+02 -0.28576142752E+03  0.34401256230E+03  0.17632032538E+03 0.  0.
        -24    2    3    3    0    0  0.14688857154E+02  0.57249939718E+01 -0.60872408681E+02  0.10213460566E+03  0.80482851926E+02 0.  0.
          6    2    1    2  501    0  0.47795859369E+02  0.57547790997E+02 -0.26975439581E+01  0.18854320378E+03  0.17304644038E+03 0.  0.
         24    2    5    5    0    0  0.19608724845E+02  0.69816371181E+01  0.60882485885E+02  0.10242723160E+03  0.79695767377E+02 0.  0.
          5    1    5    5  501    0  0.28187134523E+02  0.50566153879E+02 -0.63580029843E+02  0.86115972187E+02  0.47000000000E+01 0. -1.
        -11    1    6    6    0    0  0.45882691234E+02  0.22470658429E+01  0.13228343035E+02  0.47804390167E+02  0.00000000000E+00 0.  1.
         12    1    6    6    0    0 -0.26273966389E+02  0.47345712752E+01  0.47654142850E+02  0.54622841429E+02  0.00000000000E+00 0. -1.
         -5    1    3    3    0  503 -0.62484716522E+02 -0.63272784969E+02 -0.22488901884E+03  0.24187795664E+03  0.47000000000E+01 0.  1.
         13    1    4    4    0    0  0.29470353626E+02  0.10794246410E+02 -0.74853263576E+02  0.81166671525E+02  0.00000000000E+00 0. -1.
        -14    1    4    4    0    0 -0.14781496472E+02 -0.50692524385E+01  0.13980854896E+02  0.20967934134E+02  0.00000000000E+00 0.  1.
</event>
<event>
12    1  0.8297444E-002  0.2358316E+03  0.7818608E-02  0.1123141E+00
         21   -1    0    0  501  502  0.00000000000E+00  0.00000000000E+00  0.85609809826E+02  0.85609809826E+02  0.00000000000E+00 0.  1.
         21   -1    0    0  502  503 -0.00000000000E+00 -0.00000000000E+00 -0.66257619385E+03  0.66257619385E+03  0.00000000000E+00 0.  1.
         -6    2    1    2    0  503  0.10322315194E+03  0.11131057502E+03 -0.35784954821E+03  0.42857071764E+03  0.18047575366E+03 0.  0.
        -24    2    3    3    0    0  0.50499806509E+02  0.11750514258E+03 -0.14442563044E+03  0.20859348587E+03  0.79339716606E+02 0.  0.
          6    2    1    2  501    0 -0.10322315194E+03 -0.11131057502E+03 -0.21911683582E+03  0.31961528604E+03  0.17634250798E+03 0.  0.
         24    2    5    5    0    0 -0.98462448148E+02 -0.14707594691E+03 -0.17363648099E+03  0.26137115498E+03  0.82698641299E+02 0.  0.
          5    1    5    5  501    0 -0.47607037941E+01  0.35765371886E+02 -0.45480354826E+02  0.58244131051E+02  0.47000000000E+01 0. -1.
        -11    1    6    6    0    0 -0.91583157984E+02 -0.12208700975E+03 -0.97895054744E+02  0.18131782736E+03  0.00000000000E+00 0.  1.
         12    1    6    6    0    0 -0.68792901638E+01 -0.24988937159E+02 -0.75741426250E+02  0.80053327625E+02  0.00000000000E+00 0. -1.
         -5    1    3    3    0  503  0.52723345434E+02 -0.61945675611E+01 -0.21342391777E+03  0.21997723177E+03  0.47000000000E+01 0.  1.
         11    1    4    4    0    0  0.32407608943E+02  0.11053284225E+03 -0.14933090417E+03  0.18859342850E+03  0.00000000000E+00 0. -1.
        -12    1    4    4    0    0  0.18092197566E+02  0.69723003290E+01  0.49052737286E+01  0.20000057375E+02  0.00000000000E+00 0.  1.
</event>
<event>
12    1  0.8297444E-002  0.1808819E+03  0.7818608E-02  0.1167613E+00
         21   -1    0    0  503  502  0.00000000000E+00  0.00000000000E+00  0.61546493831E+02  0.61546493831E+02  0.00000000000E+00 0.  1.
         21   -1    0    0  501  503 -0.00000000000E+00 -0.00000000000E+00 -0.66750691857E+03  0.66750691857E+03  0.00000000000E+00 0.  1.
          6    2    1    2  501    0 -0.16333223979E+02  0.41152556409E+02 -0.47401994548E+03  0.50735902728E+03  0.17537949350E+03 0.  0.
         24    2    3    3    0    0 -0.66561374271E+00  0.25936348823E+02 -0.47662247912E+03  0.48486746964E+03  0.85172403246E+02 0.  0.
         -6    2    1    2    0  502  0.16333223979E+02 -0.41152556409E+02 -0.13194047925E+03  0.22169438512E+03  0.17256825671E+03 0.  0.
        -24    2    5    5    0    0 -0.56270041096E+02 -0.76585642537E+01 -0.77557237508E+02  0.12488163496E+03  0.79720301868E+02 0.  0.
          5    1    3    3  501    0 -0.15667610236E+02  0.15216207586E+02  0.26025336399E+01  0.22491557642E+02  0.47000000000E+01 0. -1.
        -13    1    4    4    0    0 -0.14920615811E+02  0.48926289830E+02 -0.18338825637E+03  0.19038818027E+03  0.00000000000E+00 0.  1.
         14    1    4    4    0    0  0.14255002068E+02 -0.22989941007E+02 -0.29323422275E+03  0.29447928936E+03  0.00000000000E+00 0. -1.
         -5    1    5    5    0  502  0.72603265075E+02 -0.33493992155E+02 -0.54383241745E+02  0.96812750156E+02  0.47000000000E+01 0.  1.
         11    1    6    6    0    0 -0.31629871024E+02  0.34928808164E+02 -0.49052047581E+02  0.68018922019E+02  0.00000000000E+00 0. -1.
        -12    1    6    6    0    0 -0.24640170072E+02 -0.42587372418E+02 -0.28505189927E+02  0.56862712945E+02  0.00000000000E+00 0.  1.
</event>
<event>
12    1  0.8297444E-002  0.1848966E+03  0.7818608E-02  0.1163455E+00
         21   -1    0    0  503  502  0.00000000000E+00  0.00000000000E+00  0.36210299279E+02  0.36210299279E+02  0.00000000000E+00 0. -1.
         21   -1    0    0  501  503 -0.00000000000E+00 -0.00000000000E+00 -0.93800467510E+03  0.93800467510E+03  0.00000000000E+00 0. -1.
          6    2    1    2  501    0  0.19856154064E+02  0.61397032611E+02 -0.46475535576E+03  0.50018426498E+03  0.17327116251E+03 0.  0.
         24    2    3    3    0    0  0.60106813573E+02  0.75014399544E+02 -0.41964775355E+03  0.43803658561E+03  0.80819701204E+02 0.  0.
         -6    2    1    2    0  502 -0.19856154064E+02 -0.61397032611E+02 -0.43703902006E+03  0.47403070940E+03  0.17186665160E+03 0.  0.
        -24    2    5    5    0    0  0.72558067192E+01 -0.22031930736E+01 -0.75774169515E+02  0.10691580737E+03  0.75045081839E+02 0.  0.
          5    1    3    3  501    0 -0.40250659509E+02 -0.13617366933E+02 -0.45107602219E+02  0.62147679370E+02  0.47000000000E+01 0. -1.
        -11    1    4    4    0    0  0.48921309183E+02  0.54855961029E+02 -0.14637274193E+03  0.16379087439E+03  0.00000000000E+00 0.  1.
         12    1    4    4    0    0  0.11185504390E+02  0.20158438515E+02 -0.27327501162E+03  0.27424571123E+03  0.00000000000E+00 0. -1.
         -5    1    5    5    0  502 -0.27111960783E+02 -0.59193839537E+02 -0.36126485054E+03  0.36711490203E+03  0.47000000000E+01 0.  1.
         11    1    6    6    0    0  0.55073033757E+00 -0.31098852141E+02 -0.68069137746E+01  0.31839848987E+02  0.00000000000E+00 0. -1.
        -12    1    6    6    0    0  0.67050763817E+01  0.28895659067E+02 -0.68967255741E+02  0.75075958380E+02  0.00000000000E+00 0.  1.
</event>
<event>
12    1  0.8297444E-002  0.3149516E+03  0.7818608E-02  0.1078018E+00
         21   -1    0    0  503  502  0.00000000000E+00  0.00000000000E+00  0.68026713281E+02  0.68026713281E+02  0.00000000000E+00 0.  1.
         21   -1    0    0  501  503 -0.00000000000E+00 -0.00000000000E+00 -0.14598062181E+04  0.14598062181E+04  0.00000000000E+00 0. -1.
          6    2    1    2  501    0 -0.25766634713E+03  0.55201471401E+02 -0.72727603863E+03  0.79246949724E+03  0.17215783105E+03 0.  0.
         24    2    3    3    0    0 -0.14920878198E+03  0.97144693507E+02 -0.52913212765E+03  0.56267529196E+03  0.70159272899E+02 0.  0.
         -6    2    1    2    0  502  0.25766634713E+03 -0.55201471401E+02 -0.66450346617E+03  0.73536343412E+03  0.17249746319E+03 0.  0.
        -24    2    5    5    0    0  0.17232149620E+03  0.33266960585E+02 -0.38716145780E+03  0.43196421421E+03  0.76796479304E+02 0.  0.
          5    1    3    3  501    0 -0.10845756515E+03 -0.41943222106E+02 -0.19814391098E+03  0.22979420528E+03  0.47000000000E+01 0. -1.
        -11    1    4    4    0    0 -0.13201467770E+03  0.70257807547E+02 -0.34828323571E+03  0.37903198668E+03  0.00000000000E+00 0.  1.
         12    1    4    4    0    0 -0.17194104284E+02  0.26886885960E+02 -0.18084889194E+03  0.18364330528E+03  0.00000000000E+00 0. -1.
         -5    1    5    5    0  502  0.85344850932E+02 -0.88468431985E+02 -0.27734200836E+03  0.30339921991E+03  0.47000000000E+01 0.  1.
         11    1    6    6    0    0  0.70206280022E+02  0.45796825458E+01 -0.24304205393E+03  0.25302042452E+03  0.00000000000E+00 0. -1.
        -12    1    6    6    0    0  0.10211521618E+03  0.28687278039E+02 -0.14411940388E+03  0.17894378970E+03  0.00000000000E+00 0.  1.
</event>
<event>
12    1  0.8297444E-002  0.1839156E+03  0.7818608E-02  0.1164218E+00
         21   -1    0    0  503  502  0.00000000000E+00  0.00000000000E+00  0.59764200019E+03  0.59764200019E+03  0.00000000000E+00 0.  1.
         21   -1    0    0  501  503 -0.00000000000E+00 -0.00000000000E+00 -0.80157604771E+02  0.80157604771E+02  0.00000000000E+00 0.  1.
          6    2    1    2  501    0  0.60137603371E+02  0.60903356391E+01  0.74557646953E+02  0.19845352827E+03  0.17369898283E+03 0.  0.
         24    2    3    3    0    0  0.80261896342E+01 -0.31996339718E+02 -0.16392120771E+02  0.86828510776E+02  0.78627623548E+02 0.  0.
         -6    2    1    2    0  502 -0.60137603371E+02 -0.60903356391E+01  0.44292674846E+03  0.47934607669E+03  0.17301714714E+03 0.  0.
        -24    2    5    5    0    0 -0.43568058130E+02  0.60973536843E+02  0.31552222979E+03  0.33434223467E+03  0.81329604132E+02 0.  0.
          5    1    3    3  501    0  0.52111413737E+02  0.38086675357E+02  0.90949767724E+02  0.11162501749E+03  0.47000000000E+01 0. -1.
        -11    1    4    4    0    0  0.28122374413E+02 -0.32434873974E+01 -0.36657545323E+02  0.46315912841E+02  0.00000000000E+00 0.  1.
         12    1    4    4    0    0 -0.20096184779E+02 -0.28752852320E+02  0.20265424552E+02  0.40512597936E+02  0.00000000000E+00 0. -1.
         -5    1    5    5    0  502 -0.16569545241E+02 -0.67063872482E+02  0.12740451868E+03  0.14500384202E+03  0.47000000000E+01 0.  1.
         11    1    6    6    0    0  0.23544521979E+02  0.24775282214E+02  0.89496502399E+02  0.95800746686E+02  0.00000000000E+00 0. -1.
        -12    1    6    6    0    0 -0.67112580108E+02  0.36198254629E+02  0.22602572739E+03  0.23854148798E+03  0.00000000000E+00 0.  1.
</event>
<event>
12    1  0.8297444E-002  0.2198783E+03  0.7818608E-02  0.1134057E+00
         21   -1    0    0  501  502  0.00000000000E+00  0.00000000000E+00  0.29244083356E+03  0.29244083356E+03  0.00000000000E+00 0.  1.
         21   -1    0    0  502  503 -0.00000000000E+00 -0.00000000000E+00 -0.23726784407E+03  0.23726784407E+03  0.00000000000E+00 0. -1.
         -6    2    1    2    0  503  0.13622536098E+03  0.10143899988E+02 -0.11857855524E+03  0.24981456989E+03  0.17229683075E+03 0.  0.
        -24    2    3    3    0    0  0.16713731065E+03  0.22983335896E+02 -0.11223470889E+03  0.21542366800E+03  0.73127371868E+02 0.  0.
          6    2    1    2  501    0 -0.13622536098E+03 -0.10143899988E+02  0.17375154472E+03  0.27989410774E+03  0.17172904406E+03 0.  0.
         24    2    5    5    0    0 -0.97002664299E+02  0.58761566939E+02  0.12346002930E+03  0.18588501334E+03  0.80302059242E+02 0.  0.
          5    1    5    5  501    0 -0.39222696683E+02 -0.68905466927E+02  0.50291515423E+02  0.94009094407E+02  0.47000000000E+01 0. -1.
        -11    1    6    6    0    0 -0.23814137645E+02  0.59822671394E+02  0.44821812360E+02  0.78452915993E+02  0.00000000000E+00 0.  1.
         12    1    6    6    0    0 -0.73188526654E+02 -0.10611044547E+01  0.78638216940E+02  0.10743209735E+03  0.00000000000E+00 0. -1.
         -5    1    3    3    0  503 -0.30911949664E+02 -0.12839435908E+02 -0.63438463484E+01  0.34390901892E+02  0.47000000000E+01 0.  1.
         11    1    4    4    0    0  0.67155660082E+02 -0.17781003932E+02 -0.17158855671E+02  0.71557481159E+02  0.00000000000E+00 0. -1.
        -12    1    4    4    0    0  0.99981650564E+02  0.40764339828E+02 -0.95075853217E+02  0.14386618684E+03  0.00000000000E+00 0.  1.
</event>
<event>
12    1  0.8297444E-002  0.3434863E+03  0.7818608E-02  0.1065343E+00
         21   -1    0    0  503  502  0.00000000000E+00  0.00000000000E+00  0.47355385492E+03  0.47355385492E+03  0.00000000000E+00 0. -1.
         21   -1    0    0  501  503 -0.00000000000E+00 -0.00000000000E+00 -0.56716834969E+03  0.56716834969E+03  0.00000000000E+00 0. -1.
          6    2    1    2  501    0 -0.23319477823E+03  0.18430343255E+03 -0.43655093662E+03  0.55534785349E+03  0.17171767023E+03 0.  0.
         24    2    3    3    0    0 -0.24361680325E+03  0.18967425556E+03 -0.37421904512E+03  0.49174896165E+03  0.80322335014E+02 0.  0.
         -6    2    1    2    0  502  0.23319477823E+03 -0.18430343255E+03  0.34293644185E+03  0.48537435112E+03  0.17214905671E+03 0.  0.
        -24    2    5    5    0    0  0.20980349264E+03 -0.19815221463E+03  0.25541930041E+03  0.39361226171E+03  0.80061150744E+02 0.  0.
          5    1    3    3  501    0  0.10422025026E+02 -0.53708230058E+01 -0.62331891502E+02  0.63598891843E+02  0.47000000000E+01 0. -1.
        -11    1    4    4    0    0 -0.36108636940E+02  0.33068307149E+02 -0.21251766635E+02  0.53375876428E+02  0.00000000000E+00 0.  1.
         12    1    4    4    0    0 -0.20750816631E+03  0.15660594841E+03 -0.35296727849E+03  0.43837308522E+03  0.00000000000E+00 0. -1.
         -5    1    5    5    0  502  0.23391285585E+02  0.13848782071E+02  0.87517141445E+02  0.91762089410E+02  0.47000000000E+01 0.  1.
         13    1    6    6    0    0  0.96369809299E+02 -0.48266624852E+02  0.12378986664E+03  0.16413634059E+03  0.00000000000E+00 0. -1.
        -14    1    6    6    0    0  0.11343368334E+03 -0.14988558977E+03  0.13162943377E+03  0.22947592112E+03  0.00000000000E+00 0.  1.
</event>
<event>
12    1  0.8297444E-002  0.2149029E+03  0.7818608E-02  0.1138609E+00
         21   -1    0    0  503  502  0.00000000000E+00  0.00000000000E+00  0.92869382017E+02  0.92869382017E+02  0.00000000000E+00 0. -1.
         21   -1    0    0  501  503 -0.00000000000E+00 -0.00000000000E+00 -0.49726575051E+03  0.49726575051E+03  0.00000000000E+00 0. -1.
          6    2    1    2  501    0  0.99032185846E+02 -0.78905990928E+02 -0.24248720126E+03  0.32106668117E+03  0.16807808228E+03 0.  0.
         24    2    3    3    0    0  0.79319401354E+02 -0.56790813977E+02 -0.25806228116E+03  0.28726804158E+03  0.80062617807E+02 0.  0.
         -6    2    1    2    0  502 -0.99032185846E+02  0.78905990928E+02 -0.16190916724E+03  0.26906845136E+03  0.17363675834E+03 0.  0.
        -24    2    5    5    0    0 -0.13589160985E+03  0.81804889500E+02 -0.13734479620E+03  0.22443080946E+03  0.79668222115E+02 0.  0.
          5    1    3    3  501    0  0.19712784492E+02 -0.22115176951E+02  0.15575079903E+02  0.33798639587E+02  0.47000000000E+01 0. -1.
        -11    1    4    4    0    0 -0.12909648231E+02 -0.16833168957E+02 -0.80320240841E+02  0.83074398483E+02  0.00000000000E+00 0.  1.
         12    1    4    4    0    0  0.92229049585E+02 -0.39957645020E+02 -0.17774204032E+03  0.20419364310E+03  0.00000000000E+00 0. -1.
         -5    1    5    5    0  502  0.36859424005E+02 -0.28988985718E+01 -0.24564371033E+02  0.44637641908E+02  0.47000000000E+01 0.  1.
         13    1    6    6    0    0 -0.97014038553E+02  0.15661942454E+02 -0.58242513145E+02  0.11423314079E+03  0.00000000000E+00 0. -1.
        -14    1    6    6    0    0 -0.38877571298E+02  0.66142947046E+02 -0.79102283058E+02  0.11019766866E+03  0.00000000000E+00 0.  1.
</event>
<event>
12    1  0.8297444E-002  0.1815244E+03  0.7818608E-02  0.1166445E+00
         21   -1    0    0  503  502  0.00000000000E+00  0.00000000000E+00  0.49995996659E+03  0.49995996659E+03  0.00000000000E+00 0. -1.
         21   -1    0    0  501  503 -0.00000000000E+00 -0.00000000000E+00 -0.80271952239E+02  0.80271952239E+02  0.00000000000E+00 0. -1.
          6    2    1    2  501    0 -0.59039812215E+02 -0.60471509183E+01  0.86628512589E+02  0.20113580726E+03  0.17154837892E+03 0.  0.
         24    2    3    3    0    0 -0.18924669391E+02 -0.62010304612E+02  0.82626079552E+02  0.13200398590E+03  0.79966007036E+02 0.  0.
         -6    2    1    2    0  502  0.59039812215E+02  0.60471509183E+01  0.33305950176E+03  0.37909611156E+03  0.17106420616E+03 0.  0.
        -24    2    5    5    0    0  0.20429582905E+02 -0.14027055779E+02  0.32392045881E+03  0.33438217986E+03  0.79201341058E+02 0.  0.
          5    1    3    3  501    0 -0.40115142824E+02  0.55963153694E+02  0.40024330370E+01  0.69131821366E+02  0.47000000000E+01 0. -1.
        -11    1    4    4    0    0  0.25204072219E+02 -0.68451346041E+01  0.42008189868E+01  0.26452750411E+02  0.00000000000E+00 0.  1.
         12    1    4    4    0    0 -0.44128741610E+02 -0.55165170008E+02  0.78425260565E+02  0.10555123549E+03  0.00000000000E+00 0. -1.
         -5    1    5    5    0  502  0.38610229310E+02  0.20074206698E+02  0.91390429533E+01  0.44713931699E+02  0.47000000000E+01 0.  1.
         13    1    6    6    0    0  0.15133241417E+02  0.32554003974E+02  0.15228145044E+03  0.15645580308E+03  0.00000000000E+00 0. -1.
        -14    1    6    6    0    0  0.52963414885E+01 -0.46581059753E+02  0.17163900837E+03  0.17792637678E+03  0.00000000000E+00 0.  1.
</event>
<event>
12    1  0.8297444E-002  0.2366367E+03  0.7818608E-02  0.1122097E+00
         21   -1    0    0  501  502  0.00000000000E+00  0.00000000000E+00  0.21173839027E+03  0.21173839027E+03  0.00000000000E+00 0. -1.
         21   -1    0    0  502  503 -0.00000000000E+00 -0.00000000000E+00 -0.79998007131E+03  0.79998007131E+03  0.00000000000E+00 0.  1.
         -6    2    1    2    0  503 -0.12706152209E+03 -0.98690388453E+02 -0.70816410882E+03  0.74665476257E+03  0.17352955449E+03 0.  0.
        -24    2    3    3    0    0 -0.12655239137E+03 -0.13423563872E+03 -0.59257053778E+03  0.62562713062E+03  0.78960432231E+02 0.  0.
          6    2    1    2  501    0  0.12706152209E+03  0.98690388453E+02  0.11992242778E+03  0.26506369900E+03  0.17318473569E+03 0.  0.
         24    2    5    5    0    0  0.21828072797E+02 -0.12462047455E+02  0.26585411818E+02  0.85723710691E+02  0.77524209536E+02 0.  0.
          5    1    5    5  501    0  0.10523344930E+03  0.11115243591E+03  0.93337015958E+02  0.17933998831E+03  0.47000000000E+01 0. -1.
        -11    1    6    6    0    0  0.30140960337E+02 -0.12003344966E+02 -0.20190438722E+02  0.38212715111E+02  0.00000000000E+00 0.  1.
         12    1    6    6    0    0 -0.83128875394E+01 -0.45870248929E+00  0.46775850540E+02  0.47510995579E+02  0.00000000000E+00 0. -1.
         -5    1    3    3    0  503 -0.50913072160E+00  0.35545250263E+02 -0.11559357103E+03  0.12102763195E+03  0.47000000000E+01 0.  1.
         11    1    4    4    0    0 -0.60073191995E+01 -0.23221635422E+02 -0.24079190134E+02  0.33987345191E+02  0.00000000000E+00 0. -1.
        -12    1    4    4    0    0 -0.12054507217E+03 -0.11101400329E+03 -0.56849134765E+03  0.59163978543E+03  0.00000000000E+00 0.  1.
</event>
<event>
12    1  0.8297444E-002  0.1738861E+03  0.7818608E-02  0.1174114E+00
         21   -1    0    0  501  502  0.00000000000E+00  0.00000000000E+00  0.33628384513E+03  0.33628384513E+03  0.00000000000E+00 0. -1.
         21   -1    0    0  502  503 -0.00000000000E+00 -0.00000000000E+00 -0.28467963634E+03  0.28467963634E+03  0.00000000000E+00 0. -1.
         -6    2    1    2    0  503  0.33281340886E+01  0.27222913912E+02 -0.23133209798E+03  0.28939747745E+03  0.17170962955E+03 0.  0.
        -24    2    3    3    0    0  0.56507634104E+02  0.48637492029E+02 -0.10815422891E+03  0.15345072020E+03  0.79316252783E+02 0.  0.
          6    2    1    2  501    0 -0.33281340886E+01 -0.27222913912E+02  0.28293630678E+03  0.33156600403E+03  0.17067776017E+03 0.  0.
         24    2    5    5    0    0 -0.19523805760E+02  0.46114084854E+02  0.15151167622E+03  0.18012248754E+03  0.83550192539E+02 0.  0.
          5    1    5    5  501    0  0.16195671671E+02 -0.73336998766E+02  0.13142463055E+03  0.15144351648E+03  0.47000000000E+01 0. -1.
        -13    1    6    6    0    0  0.18780976224E+01  0.64851072244E+02  0.12683635438E+03  0.14246631045E+03  0.00000000000E+00 0.  1.
         14    1    6    6    0    0 -0.21401903382E+02 -0.18736987390E+02  0.24675321841E+02  0.37656177087E+02  0.00000000000E+00 0. -1.
         -5    1    3    3    0  503 -0.53179500015E+02 -0.21414578117E+02 -0.12317786907E+03  0.13594675725E+03  0.47000000000E+01 0.  1.
         13    1    4    4    0    0  0.13290584511E+02  0.28357383267E+02 -0.10029311321E+03  0.10506897439E+03  0.00000000000E+00 0. -1.
        -14    1    4    4    0    0  0.43217049593E+02  0.20280108762E+02 -0.78611156943E+01  0.48381745802E+02  0.00000000000E+00 0.  1.
</event>
<event>
12    1  0.8297444E-002  0.1966117E+03  0.7818608E-02  0.1152789E+00
         21   -1    0    0  501  502  0.00000000000E+00  0.00000000000E+00  0.50215187307E+03  0.50215187307E+03  0.00000000000E+00 0. -1.
         21   -1    0    0  502  503 -0.00000000000E+00 -0.00000000000E+00 -0.42648901214E+03  0.42648901214E+03  0.00000000000E+00 0.  1.
         -6    2    1    2    0  503 -0.84020844172E+02 -0.47797271206E+02 -0.38266063557E+03  0.43021544396E+03  0.17120772418E+03 0.  0.
        -24    2    3    3    0    0 -0.84811193582E+02  0.27451576299E+02 -0.26455325269E+03  0.29009243516E+03  0.78858543190E+02 0.  0.
          6    2    1    2  501    0  0.84020844172E+02  0.47797271206E+02  0.45832349650E+03  0.49842544125E+03  0.17036258878E+03 0.  0.
         24    2    5    5    0    0  0.81329321012E+02  0.50355859276E+02  0.18131169736E+03  0.22134888589E+03  0.83493872026E+02 0.  0.
          5    1    5    5  501    0  0.26915231607E+01 -0.25585880695E+01  0.27701179914E+03  0.27707655536E+03  0.47000000000E+01 0. -1.
        -13    1    6    6    0    0  0.44141760005E+02 -0.19857433956E+01  0.21537062759E+02  0.49155703895E+02  0.00000000000E+00 0.  1.
         14    1    6    6    0    0  0.37187561007E+02  0.52341602671E+02  0.15977463460E+03  0.17219318199E+03  0.00000000000E+00 0. -1.
         -5    1    3    3    0  503  0.79034940954E+00 -0.75248847505E+02 -0.11810738288E+03  0.14012300880E+03  0.47000000000E+01 0.  1.
         13    1    4    4    0    0 -0.81395065947E+01  0.27719408584E+02 -0.14653258122E+03  0.14935332115E+03  0.00000000000E+00 0. -1.
        -14    1    4    4    0    0 -0.76671686987E+02 -0.26783228490E+00 -0.11802067147E+03  0.14073911401E+03  0.00000000000E+00 0.  1.
</event>
<event>
12    1  0.8297444E-002  0.2023173E+03  0.7818608E-02  0.1148258E+00
         21   -1    0    0  503  502  0.00000000000E+00  0.00000000000E+00  0.49327404544E+02  0.49327404544E+02  0.00000000000E+00 0.  1.
         21   -1    0    0  501  503 -0.00000000000E+00 -0.00000000000E+00 -0.85772893564E+03  0.85772893564E+03  0.00000000000E+00 0.  1.
          6    2    1    2  501    0 -0.92952915573E+02  0.39386437546E+02 -0.31224011406E+03  0.37205670583E+03  0.17533045242E+03 0.  0.
         24    2    3    3    0    0  0.15765435142E+02  0.36201792805E+02 -0.10583947153E+03  0.13870474637E+03  0.80485366275E+02 0.  0.
         -6    2    1    2    0  502  0.92952915573E+02 -0.39386437546E+02 -0.49616141703E+03  0.53499963435E+03  0.17279155371E+03 0.  0.
        -24    2    5    5    0    0  0.11517718349E+03 -0.15493426585E+01 -0.44941323428E+03  0.47071086064E+03  0.79550456488E+02 0.  0.
          5    1    3    3  501    0 -0.10871835072E+03  0.31846447412E+01 -0.20640064253E+03  0.23335195946E+03  0.47000000000E+01 0. -1.
        -11    1    4    4    0    0  0.24981360904E+02  0.53676798543E+02 -0.43940611146E+02  0.73729535481E+02  0.00000000000E+00 0.  1.
         12    1    4    4    0    0 -0.92159257613E+01 -0.17475005738E+02 -0.61898860386E+02  0.64975210890E+02  0.00000000000E+00 0. -1.
         -5    1    5    5    0  502 -0.22224267918E+02 -0.37837094888E+02 -0.46748182753E+02  0.64288773707E+02  0.47000000000E+01 0.  1.
         11    1    6    6    0    0  0.12081444247E+03 -0.15050053570E+02 -0.35803628878E+03  0.37817009097E+03  0.00000000000E+00 0. -1.
        -12    1    6    6    0    0 -0.56372589754E+01  0.13500710912E+02 -0.91376945499E+02  0.92540769678E+02  0.00000000000E+00 0.  1.
</event>
<event>
12    1  0.8297444E-002  0.2502013E+03  0.7818608E-02  0.1113191E+00
         21   -1    0    0  503  502  0.00000000000E+00  0.00000000000E+00  0.62753866037E+03  0.62753866037E+03  0.00000000000E+00 0. -1.
         21   -1    0    0  501  503 -0.00000000000E+00 -0.00000000000E+00 -0.24498038803E+03  0.24498038803E+03  0.00000000000E+00 0.  1.
          6    2    1    2  501    0  0.74295287945E+02 -0.16599252012E+03 -0.14463828860E+03  0.28899986408E+03  0.17183532920E+03 0.  0.
         24    2    3    3    0    0  0.53523161098E+02 -0.16789324282E+02 -0.39694620189E+02  0.10534709813E+03  0.79848218690E+02 0.  0.
         -6    2    1    2    0  502 -0.74295287945E+02  0.16599252012E+03  0.52719656094E+03  0.58351918432E+03  0.17171231190E+03 0.  0.
        -24    2    5    5    0    0  0.24601304052E+02  0.68841574393E+02  0.27656877259E+03  0.29706636018E+03  0.80085890483E+02 0.  0.
          5    1    3    3  501    0  0.20772126847E+02 -0.14920319584E+03 -0.10494366841E+03  0.18365276595E+03  0.47000000000E+01 0. -1.
        -13    1    4    4    0    0  0.68246820393E+02 -0.12826246927E+02 -0.51174435700E+02  0.86261022329E+02  0.00000000000E+00 0.  1.
         14    1    4    4    0    0 -0.14723659295E+02 -0.39630773545E+01  0.11479815511E+02  0.19086075797E+02  0.00000000000E+00 0. -1.
         -5    1    5    5    0  502 -0.98896591997E+02  0.97150945730E+02  0.25062778835E+03  0.28645282414E+03  0.47000000000E+01 0.  1.
         11    1    6    6    0    0 -0.14386343542E+02  0.10999442217E+02  0.16145332734E+03  0.16246578569E+03  0.00000000000E+00 0. -1.
        -12    1    6    6    0    0  0.38987647594E+02  0.57842132176E+02  0.11511544525E+03  0.13460057449E+03  0.00000000000E+00 0.  1.
</event>
<event>
12    1  0.8297444E-002  0.2224461E+03  0.7818608E-02  0.1132093E+00
         21   -1    0    0  503  502  0.00000000000E+00  0.00000000000E+00  0.33727585850E+03  0.33727585850E+03  0.00000000000E+00 0.  1.
         21   -1    0    0  501  503 -0.00000000000E+00 -0.00000000000E+00 -0.35172763865E+03  0.35172763865E+03  0.00000000000E+00 0. -1.
          6    2    1    2  501    0 -0.13756358153E+03  0.20650066335E+02 -0.27029017983E+03  0.35005579250E+03  0.17358603730E+03 0.  0.
         24    2    3    3    0    0 -0.53570945219E+02  0.59372522233E+02 -0.79311868662E+02  0.13780830280E+03  0.79409150876E+02 0.  0.
         -6    2    1    2    0  502  0.13756358153E+03 -0.20650066335E+02  0.25583839967E+03  0.33894770466E+03  0.17344190826E+03 0.  0.
        -24    2    5    5    0    0  0.26994173778E+02  0.13431438680E+02  0.43114857112E+02  0.96748327130E+02  0.81192727111E+02 0.  0.
          5    1    3    3  501    0 -0.83992636316E+02 -0.38722455898E+02 -0.19097831116E+03  0.21224748969E+03  0.47000000000E+01 0. -1.
        -11    1    4    4    0    0 -0.61474861573E+02  0.37022662758E+02 -0.20860940316E+02  0.74732957883E+02  0.00000000000E+00 0.  1.
         12    1    4    4    0    0  0.79039163540E+01  0.22349859475E+02 -0.58450928346E+02  0.63075344920E+02  0.00000000000E+00 0. -1.
         -5    1    5    5    0  502  0.11056940776E+03 -0.34081505015E+02  0.21272354256E+03  0.24219937753E+03  0.47000000000E+01 0.  1.
         13    1    6    6    0    0  0.25847238747E+02 -0.29849926160E+02  0.64413635197E+01  0.40007361905E+02  0.00000000000E+00 0. -1.
        -14    1    6    6    0    0  0.11469350316E+01  0.43281364840E+02  0.36673493592E+02  0.56740965225E+02  0.00000000000E+00 0.  1.
</event>
<event>
12    1  0.8297444E-002  0.1739471E+03  0.7818608E-02  0.1174369E+00
         21   -1    0    0  503  502  0.00000000000E+00  0.00000000000E+00  0.90026886323E+02  0.90026886323E+02  0.00000000000E+00 0.  1.
         21   -1    0    0  501  503 -0.00000000000E+00 -0.00000000000E+00 -0.37204487650E+03  0.37204487650E+03  0.00000000000E+00 0.  1.
          6    2    1    2  501    0 -0.41119761838E+01  0.25484865664E+02 -0.21787177769E+03  0.27879333290E+03  0.17202099938E+03 0.  0.
         24    2    3    3    0    0 -0.66255812497E+02  0.17661239008E+02 -0.11040968840E+03  0.15432142377E+03  0.83204870593E+02 0.  0.
         -6    2    1    2    0  502  0.41119761838E+01 -0.25484865664E+02 -0.64146212483E+02  0.18327842992E+03  0.16973467404E+03 0.  0.
        -24    2    5    5    0    0 -0.42455337404E+02  0.33540393342E+02 -0.40143678928E+02  0.10421701384E+03  0.79512623883E+02 0.  0.
          5    1    3    3  501    0  0.62143836313E+02  0.78236266559E+01 -0.10746208929E+03  0.12447190912E+03  0.47000000000E+01 0. -1.
        -11    1    4    4    0    0 -0.39772154460E+02 -0.19355941686E+02 -0.97415932190E+02  0.10698757214E+03  0.00000000000E+00 0.  1.
         12    1    4    4    0    0 -0.26483658037E+02  0.37017180694E+02 -0.12993756207E+02  0.47333851628E+02  0.00000000000E+00 0. -1.
         -5    1    5    5    0  502  0.46567313588E+02 -0.59025259006E+02 -0.24002533555E+02  0.79061416080E+02  0.47000000000E+01 0.  1.
         11    1    6    6    0    0  0.18413194022E+02  0.26357207349E+02 -0.24103969094E+01  0.32242178999E+02  0.00000000000E+00 0. -1.
        -12    1    6    6    0    0 -0.60868531426E+02  0.71831859930E+01 -0.37733282019E+02  0.71974834844E+02  0.00000000000E+00 0.  1.
</event>
<event>
12    1  0.8297444E-002  0.2339510E+03  0.7818608E-02  0.1123990E+00
         21   -1    0    0  501  502  0.00000000000E+00  0.00000000000E+00  0.35038576879E+04  0.35038576879E+04  0.00000000000E+00 0.  1.
         21   -1    0    0  502  503 -0.00000000000E+00 -0.00000000000E+00 -0.17856269512E+02  0.17856269512E+02  0.00000000000E+00 0. -1.
         -6    2    1    2    0  503  0.38803431232E+02 -0.15274875995E+03  0.23695412434E+04  0.23810052392E+04  0.17211146090E+03 0.  0.
        -24    2    3    3    0    0 -0.38455327501E+02 -0.40520092882E+02  0.10022093550E+04  0.10068936089E+04  0.79312409077E+02 0.  0.
          6    2    1    2  501    0 -0.38803431232E+02  0.15274875995E+03  0.11164601750E+04  0.11407087182E+04  0.17290219066E+03 0.  0.
         24    2    5    5    0    0 -0.38409697908E+02  0.83391144427E+01  0.46680532117E+03  0.47518049204E+03  0.79652033384E+02 0.  0.
          5    1    5    5  501    0 -0.39373332444E+00  0.14440964551E+03  0.64965485382E+03  0.66552822617E+03  0.47000000000E+01 0. -1.
        -11    1    6    6    0    0 -0.12425788201E+02  0.42283191047E+02  0.28696656867E+03  0.29033098352E+03  0.00000000000E+00 0.  1.
         12    1    6    6    0    0 -0.25983909707E+02 -0.33944076605E+02  0.17983875250E+03  0.18484950852E+03  0.00000000000E+00 0. -1.
         -5    1    3    3    0  503  0.77258758733E+02 -0.11222866707E+03  0.13673318884E+04  0.13741116303E+04  0.47000000000E+01 0.  1.
         11    1    4    4    0    0  0.78455909971E+01  0.70940768841E+01  0.52266984478E+03  0.52277686049E+03  0.00000000000E+00 0. -1.
        -12    1    4    4    0    0 -0.46300918498E+02 -0.47614169766E+02  0.47953951025E+03  0.48411674843E+03  0.00000000000E+00 0.  1.
</event>
<event>
12    1  0.8297444E-002  0.3192545E+03  0.7818608E-02  0.1076176E+00
         21   -1    0    0  501  502  0.00000000000E+00  0.00000000000E+00  0.14230068494E+04  0.14230068494E+04  0.00000000000E+00 0. -1.
         21   -1    0    0  502  503 -0.00000000000E+00 -0.00000000000E+00 -0.78480954962E+02  0.78480954962E+02  0.00000000000E+00 0. -1.
         -6    2    1    2    0  503 -0.20542174077E+03 -0.17180584684E+03  0.44621852466E+03  0.54866601921E+03  0.17380474187E+03 0.  0.
        -24    2    3    3    0    0 -0.13042964639E+03 -0.12175126605E+03  0.17315169407E+03  0.26106063115E+03  0.79598244522E+02 0.  0.
          6    2    1    2  501    0  0.20542174077E+03  0.17180584684E+03  0.89830736982E+03  0.95282178520E+03  0.17087388064E+03 0.  0.
         24    2    5    5    0    0  0.28077570216E+02  0.54412610104E+02  0.22464735407E+03  0.24637148002E+03  0.80519503170E+02 0.  0.
          5    1    5    5  501    0  0.17734417055E+03  0.11739323674E+03  0.67366001575E+03  0.70645030517E+03  0.47000000000E+01 0. -1.
        -11    1    6    6    0    0  0.25845339847E+02  0.21120433069E+02  0.19766528957E+02  0.38791364398E+02  0.00000000000E+00 0.  1.
         12    1    6    6    0    0  0.22322303690E+01  0.33292177035E+02  0.20488082511E+03  0.20758011563E+03  0.00000000000E+00 0. -1.
         -5    1    3    3    0  503 -0.74992094375E+02 -0.50054580790E+02  0.27306683059E+03  0.28760538806E+03  0.47000000000E+01 0.  1.
         13    1    4    4    0    0 -0.76947250945E+02 -0.34691580948E+02  0.11761470362E+03  0.14476741251E+03  0.00000000000E+00 0. -1.
        -14    1    4    4    0    0 -0.53482395445E+02 -0.87059685101E+02  0.55536990458E+02  0.11629321864E+03  0.00000000000E+00 0.  1.
</event>
<event>
12    1  0.8297444E-002  0.1930944E+03  0.7818608E-02  0.1155981E+00
         21   -1    0    0  501  502  0.00000000000E+00  0.00000000000E+00  0.73049328355E+02  0.73049328355E+02  0.00000000000E+00 0.  1.
         21   -1    0    0  502  503 -0.00000000000E+00 -0.00000000000E+00 -0.57055716640E+03  0.57055716640E+03  0.00000000000E+00 0.  1.
         -6    2    1    2    0  503  0.70030321022E+02  0.45953084684E+02 -0.35682973169E+03  0.40572515610E+03  0.17398135825E+03 0.  0.
        -24    2    3    3    0    0 -0.86107258334E+00  0.51679464656E+02 -0.84755948437E+02  0.12446973011E+03  0.75084182121E+02 0.  0.
          6    2    1    2  501    0 -0.70030321022E+02 -0.45953084684E+02 -0.14067810635E+03  0.23788133865E+03  0.17257250597E+03 0.  0.
         24    2    5    5    0    0 -0.77305162367E+02 -0.22722090029E+02 -0.16689374513E+03  0.20179876466E+03  0.79855104717E+02 0.  0.
          5    1    5    5  501    0  0.72748413455E+01 -0.23230994655E+02  0.26215638782E+02  0.36082573993E+02  0.47000000000E+01 0. -1.
        -11    1    6    6    0    0 -0.84872275361E+02 -0.15857150841E+02 -0.91840499691E+02  0.12605328136E+03  0.00000000000E+00 0.  1.
         12    1    6    6    0    0  0.75671129935E+01 -0.68649391884E+01 -0.75053245441E+02  0.75745483300E+02  0.00000000000E+00 0. -1.
         -5    1    3    3    0  503  0.70891393605E+02 -0.57263799722E+01 -0.27207378325E+03  0.28125542599E+03  0.47000000000E+01 0.  1.
         11    1    4    4    0    0 -0.29932171663E+01 -0.25962385101E+01  0.12478397130E+02  0.13092371761E+02  0.00000000000E+00 0. -1.
        -12    1    4    4    0    0  0.21321445830E+01  0.54275703166E+02 -0.97234345567E+02  0.11137735835E+03  0.00000000000E+00 0.  1.
</event>
<event>
12    1  0.8297444E-002  0.2752863E+03  0.7818608E-02  0.1098299E+00
         21   -1    0    0  503  502  0.00000000000E+00  0.00000000000E+00  0.10535040817E+04  0.10535040817E+04  0.00000000000E+00 0.  1.
         21   -1    0    0  501  503 -0.00000000000E+00 -0.00000000000E+00 -0.11401716342E+03  0.11401716342E+03  0.00000000000E+00 0.  1.
          6    2    1    2  501    0 -0.19518284346E+01 -0.21481700642E+03  0.11500918971E+03  0.29829972691E+03  0.17206236506E+03 0.  0.
         24    2    3    3    0    0  0.49520716465E+01 -0.13615966631E+03  0.14445378291E+03  0.21389762351E+03  0.79506730537E+02 0.  0.
         -6    2    1    2    0  502  0.19518284346E+01  0.21481700642E+03  0.82447772855E+03  0.86922151819E+03  0.17214054414E+03 0.  0.
        -24    2    5    5    0    0  0.18460700357E+02  0.21815740778E+03  0.59301812404E+03  0.63710228234E+03  0.79343372116E+02 0.  0.
          5    1    3    3  501    0 -0.69039000812E+01 -0.78657340110E+02 -0.29444593199E+02  0.84402103398E+02  0.47000000000E+01 0. -1.
        -13    1    4    4    0    0 -0.25546123302E+02 -0.99089316871E+02  0.65503349291E+02  0.12149891317E+03  0.00000000000E+00 0.  1.
         14    1    4    4    0    0  0.30498194948E+02 -0.37070349442E+02  0.78950433620E+02  0.92398710335E+02  0.00000000000E+00 0. -1.
         -5    1    5    5    0  502 -0.16508871922E+02 -0.33404013546E+01  0.23145960451E+03  0.23211923585E+03  0.47000000000E+01 0.  1.
         13    1    6    6    0    0 -0.10338667244E+02  0.61300402572E+01  0.85218345895E+02  0.86061791238E+02  0.00000000000E+00 0. -1.
        -14    1    6    6    0    0  0.28799367601E+02  0.21202736752E+03  0.50779977815E+03  0.55104049110E+03  0.00000000000E+00 0.  1.
</event>
<event>
12    1  0.8297444E-002  0.1876648E+03  0.7818608E-02  0.1161185E+00
         21   -1    0    0  501  502  0.00000000000E+00  0.00000000000E+00  0.49771870325E+03  0.49771870325E+03  0.00000000000E+00 0.  1.
         21   -1    0    0  502  503 -0.00000000000E+00 -0.00000000000E+00 -0.76054720400E+02  0.76054720400E+02  0.00000000000E+00 0. -1.
         -6    2    1    2    0  503 -0.25837006576E+01 -0.68834430845E+02  0.29457460050E+03  0.34927392584E+03  0.17456582035E+03 0.  0.
        -24    2    3    3    0    0 -0.75261826114E+01 -0.10763302483E+03  0.24441658548E+03  0.28549559493E+03  0.10063178427E+03 0.  0.
          6    2    1    2  501    0  0.25837006576E+01  0.68834430845E+02  0.12708938235E+03  0.22449949781E+03  0.17176570971E+03 0.  0.
         24    2    5    5    0    0 -0.58429837349E+01  0.10337300874E+03  0.49115884538E+02  0.13867480012E+03  0.78091040966E+02 0.  0.
          5    1    5    5  501    0  0.84266843925E+01 -0.34538577892E+02  0.77973497811E+02  0.85824697689E+02  0.47000000000E+01 0. -1.
        -11    1    6    6    0    0 -0.15601573607E+02  0.23190556373E+02  0.50690268587E+02  0.57885355085E+02  0.00000000000E+00 0.  1.
         12    1    6    6    0    0  0.97585898718E+01  0.80182452364E+02 -0.15743840488E+01  0.80789445032E+02  0.00000000000E+00 0. -1.
         -5    1    3    3    0  503  0.49424819539E+01  0.38798593989E+02  0.50158015016E+02  0.63778330911E+02  0.47000000000E+01 0.  1.
         11    1    4    4    0    0 -0.40260154782E+02 -0.28509027619E+02  0.15061519178E+03  0.15848842454E+03  0.00000000000E+00 0. -1.
        -12    1    4    4    0    0  0.32733972171E+02 -0.79123997215E+02  0.93801393702E+02  0.12700717039E+03  0.00000000000E+00 0.  1.
</event>
<event>
12    1  0.8297444E-002  0.4082304E+03  0.7818608E-02  0.1041018E+00
         21   -1    0    0  503  502  0.00000000000E+00  0.00000000000E+00  0.12465309180E+03  0.12465309180E+03  0.00000000000E+00 0.  1.
         21   -1    0    0  501  503 -0.00000000000E+00 -0.00000000000E+00 -0.16684160329E+04  0.16684160329E+04  0.00000000000E+00 0. -1.
          6    2    1    2  501    0  0.36249072874E+03 -0.74501887315E+02 -0.11731626881E+04  0.12421605167E+04  0.17234267300E+03 0.  0.
         24    2    3    3    0    0  0.16759355103E+03  0.25947661756E+02 -0.58528979945E+03  0.61471199693E+03  0.80906182288E+02 0.  0.
         -6    2    1    2    0  502 -0.36249072874E+03  0.74501887315E+02 -0.37060025307E+03  0.55090860804E+03  0.17089671499E+03 0.  0.
        -24    2    5    5    0    0 -0.15090166506E+03 -0.20187093993E+02 -0.11330260105E+03  0.20455603220E+03  0.76333869438E+02 0.  0.
          5    1    3    3  501    0  0.19489717771E+03 -0.10044954907E+03 -0.58787288862E+03  0.62744851977E+03  0.47000000000E+01 0. -1.
        -13    1    4    4    0    0  0.31602672871E+02 -0.23565154309E+02 -0.81281499873E+02  0.90336745856E+02  0.00000000000E+00 0.  1.
         14    1    4    4    0    0  0.13599087816E+03  0.49512816064E+02 -0.50400829958E+03  0.52437525107E+03  0.00000000000E+00 0. -1.
         -5    1    5    5    0  502 -0.21158906368E+03  0.94688981308E+02 -0.25729765203E+03  0.34635257584E+03  0.47000000000E+01 0.  1.
         13    1    6    6    0    0 -0.12935559160E+03 -0.43379077158E+02 -0.10402452248E+03  0.17156839654E+03  0.00000000000E+00 0. -1.
        -14    1    6    6    0    0 -0.21546073464E+02  0.23191983165E+02 -0.92780785675E+01  0.32987635665E+02  0.00000000000E+00 0.  1.
</event>
<event>
12    1  0.8297444E-002  0.2114692E+03  0.7818608E-02  0.1141263E+00
         21   -1    0    0  503  502  0.00000000000E+00  0.00000000000E+00  0.85116443437E+02  0.85116443437E+02  0.00000000000E+00 0. -1.
         21   -1    0    0  501  503 -0.00000000000E+00 -0.00000000000E+00 -0.63134023136E+03  0.63134023136E+03  0.00000000000E+00 0. -1.
          6    2    1    2  501    0  0.11482983795E+03  0.31722173369E+02 -0.42935281795E+03  0.47860534594E+03  0.17471990989E+03 0.  0.
         24    2    3    3    0    0  0.17483322667E+02  0.94793513331E+01 -0.73881940424E+02  0.10934565150E+03  0.78117896202E+02 0.  0.
         -6    2    1    2    0  502 -0.11482983795E+03 -0.31722173369E+02 -0.11687096997E+03  0.23785132886E+03  0.16947637904E+03 0.  0.
        -24    2    5    5    0    0 -0.61151143451E+02 -0.19311471977E+02  0.16448661296E+02  0.93519621208E+02  0.66052750111E+02 0.  0.
          5    1    3    3  501    0  0.97346515283E+02  0.22242822035E+02 -0.35547087752E+03  0.36925969444E+03  0.47000000000E+01 0. -1.
        -11    1    4    4    0    0 -0.26004796259E+02  0.87527856667E+01 -0.55919220768E+02  0.62288200621E+02  0.00000000000E+00 0.  1.
         12    1    4    4    0    0  0.43488118926E+02  0.72656566637E+00 -0.17962719657E+02  0.47057450875E+02  0.00000000000E+00 0. -1.
         -5    1    5    5    0  502 -0.53678694498E+02 -0.12410701391E+02 -0.13331963127E+03  0.14433170765E+03  0.47000000000E+01 0.  1.
         11    1    6    6    0    0 -0.59831873273E+02 -0.31509311322E+02  0.31082424808E+02  0.74423160987E+02  0.00000000000E+00 0. -1.
        -12    1    6    6    0    0 -0.13192701779E+01  0.12197839344E+02 -0.14633763512E+02  0.19096460221E+02  0.00000000000E+00 0.  1.
</event>
<event>
12    1  0.8297444E-002  0.1967294E+03  0.7818608E-02  0.1153059E+00
         21   -1    0    0  503  502  0.00000000000E+00  0.00000000000E+00  0.57819906763E+02  0.57819906763E+02  0.00000000000E+00 0.  1.
         21   -1    0    0  501  503 -0.00000000000E+00 -0.00000000000E+00 -0.83150417817E+03  0.83150417817E+03  0.00000000000E+00 0. -1.
          6    2    1    2  501    0 -0.29834892759E+02 -0.94246583084E+02 -0.58623673672E+03  0.61759068280E+03  0.16724891856E+03 0.  0.
         24    2    3    3    0    0 -0.39129070537E+02 -0.12011879932E+03 -0.36976124373E+03  0.39932597568E+03  0.82330112201E+02 0.  0.
         -6    2    1    2    0  502  0.29834892759E+02  0.94246583084E+02 -0.18744753469E+03  0.27173340213E+03  0.17008798994E+03 0.  0.
        -24    2    5    5    0    0 -0.20951751598E+02  0.10103099965E+03 -0.17650862722E+03  0.21913053862E+03  0.78845790550E+02 0.  0.
          5    1    3    3  501    0  0.92941777786E+01  0.25872216232E+02 -0.21647549298E+03  0.21826470712E+03  0.47000000000E+01 0. -1.
        -11    1    4    4    0    0 -0.46536077249E+02 -0.35616692347E+02 -0.93607698581E+02  0.11043802105E+03  0.00000000000E+00 0.  1.
         12    1    4    4    0    0  0.74070067121E+01 -0.84502106969E+02 -0.27615354515E+03  0.28888795463E+03  0.00000000000E+00 0. -1.
         -5    1    5    5    0  502  0.50786644356E+02 -0.67844165619E+01 -0.10938907472E+02  0.52602863513E+02  0.47000000000E+01 0.  1.
         13    1    6    6    0    0 -0.46562175342E+02  0.76239033903E+02 -0.96281122083E+02  0.13134108623E+03  0.00000000000E+00 0. -1.
        -14    1    6    6    0    0  0.25610423744E+02  0.24791965743E+02 -0.80227505137E+02  0.87789452386E+02  0.00000000000E+00 0.  1.
</event>
<event>
12    1  0.8297444E-002  0.1909101E+03  0.7818608E-02  0.1159585E+00
         21   -1    0    0  501  502  0.00000000000E+00  0.00000000000E+00  0.12786084766E+04  0.12786084766E+04  0.00000000000E+00 0. -1.
         21   -1    0    0  502  503 -0.00000000000E+00 -0.00000000000E+00 -0.28803627406E+02  0.28803627406E+02  0.00000000000E+00 0. -1.
         -6    2    1    2    0  503 -0.72046122682E+02  0.39860122025E+02  0.46002301436E+03  0.49488393678E+03  0.16281727187E+03 0.  0.
        -24    2    3    3    0    0 -0.11181314704E+03  0.40700083019E+02  0.34680942282E+03  0.37479426582E+03  0.77687124611E+02 0.  0.
          6    2    1    2  501    0  0.72046122682E+02 -0.39860122025E+02  0.78978183482E+03  0.81252816721E+03  0.17224169873E+03 0.  0.
         24    2    5    5    0    0  0.99354975681E+02  0.15861206505E+02  0.50242406182E+03  0.51850908686E+03  0.79364640747E+02 0.  0.
          5    1    5    5  501    0 -0.27308853000E+02 -0.55721328530E+02  0.28735777300E+03  0.29401908035E+03  0.47000000000E+01 0. -1.
        -13    1    6    6    0    0  0.95671759380E+02  0.18113768175E+02  0.50443459351E+03  0.51374648735E+03  0.00000000000E+00 0.  1.
         14    1    6    6    0    0  0.36832163013E+01 -0.22525616701E+01 -0.20105316906E+01  0.47625995086E+01  0.00000000000E+00 0. -1.
         -5    1    3    3    0  503  0.39767024355E+02 -0.83996099430E+00  0.11321359154E+03  0.12008967096E+03  0.47000000000E+01 0.  1.
         13    1    4    4    0    0 -0.40348922524E+02  0.29411867114E+01  0.37723348184E+02  0.55314890638E+02  0.00000000000E+00 0. -1.
        -14    1    4    4    0    0 -0.71464224512E+02  0.37758896308E+02  0.30908607463E+03  0.31947937518E+03  0.00000000000E+00 0.  1.
</event>
<event>
12    1  0.8297444E-002  0.2409439E+03  0.7818608E-02  0.1120594E+00
         21   -1    0    0  503  502  0.00000000000E+00  0.00000000000E+00  0.90165907260E+03  0.90165907260E+03  0.00000000000E+00 0. -1.
         21   -1    0    0  501  503 -0.00000000000E+00 -0.00000000000E+00 -0.64172382110E+02  0.64172382110E+02  0.00000000000E+00 0. -1.
          6    2    1    2  501    0  0.12223026137E+03  0.96489014470E+02  0.49731969885E+03  0.54897709075E+03  0.17262270011E+03 0.  0.
         24    2    3    3    0    0  0.13268546328E+03  0.41841271147E+02  0.26763860853E+03  0.31260623733E+03  0.82073812516E+02 0.  0.
         -6    2    1    2    0  502 -0.12223026137E+03 -0.96489014470E+02  0.34016699164E+03  0.41685436396E+03  0.18385758577E+03 0.  0.
        -24    2    5    5    0    0 -0.10453377068E+03 -0.14053694018E+03  0.26749729595E+03  0.32992703677E+03  0.81357885165E+02 0.  0.
          5    1    3    3  501    0 -0.10455201915E+02  0.54647743323E+02  0.22968109032E+03  0.23637085342E+03  0.47000000000E+01 0. -1.
        -11    1    4    4    0    0  0.35020700099E+02 -0.20129221765E+02  0.37884659945E+02  0.55379440801E+02  0.00000000000E+00 0.  1.
         12    1    4    4    0    0  0.97664763183E+02  0.61970492912E+02  0.22975394859E+03  0.25722679653E+03  0.00000000000E+00 0. -1.
         -5    1    5    5    0  502 -0.17696490684E+02  0.44047925712E+02  0.72669695683E+02  0.86927327192E+02  0.47000000000E+01 0.  1.
         11    1    6    6    0    0 -0.42478016473E+02 -0.43550381662E+01  0.72221348274E+02  0.83900365836E+02  0.00000000000E+00 0. -1.
        -12    1    6    6    0    0 -0.62055754209E+02 -0.13618190202E+03  0.19527594768E+03  0.24602667093E+03  0.00000000000E+00 0.  1.
</event>
<event>
12    1  0.8297444E-002  0.1894262E+03  0.7818608E-02  0.1159252E+00
         21   -1    0    0  501  502  0.00000000000E+00  0.00000000000E+00  0.28532470560E+03  0.28532470560E+03  0.00000000000E+00 0. -1.
         21   -1    0    0  502  503 -0.00000000000E+00 -0.00000000000E+00 -0.17503954813E+03  0.17503954813E+03  0.00000000000E+00 0. -1.
         -6    2    1    2    0  503 -0.75909104961E+02  0.14998410598E+02  0.17813158948E+03  0.25915435944E+03  0.17158955187E+03 0.  0.
        -24    2    3    3    0    0 -0.31384123600E+02  0.96414161695E+01  0.19356083099E+03  0.21149596199E+03  0.78656382599E+02 0.  0.
          6    2    1    2  501    0  0.75909104961E+02 -0.14998410598E+02 -0.67846432014E+02  0.20120989429E+03  0.17290210724E+03 0.  0.
         24    2    5    5    0    0  0.12204332040E+02  0.43030703456E+02 -0.68932413798E+02  0.11490262039E+03  0.80314054442E+02 0.  0.
          5    1    5    5  501    0  0.63704772921E+02 -0.58029114055E+02  0.10859817838E+01  0.86307273895E+02  0.47000000000E+01 0. -1.
        -11    1    6    6    0    0  0.21411319388E+02  0.51873465101E+02 -0.13097248582E+02  0.57626720364E+02  0.00000000000E+00 0.  1.
         12    1    6    6    0    0 -0.92069873476E+01 -0.88427616447E+01 -0.55835165216E+02  0.57275900030E+02  0.00000000000E+00 0. -1.
         -5    1    3    3    0  503 -0.44524981361E+02  0.53569944289E+01 -0.15429241508E+02  0.47658397456E+02  0.47000000000E+01 0.  1.
         13    1    4    4    0    0 -0.51419511523E+02 -0.76643202915E+01  0.16286066432E+03  0.17095702370E+03  0.00000000000E+00 0. -1.
        -14    1    4    4    0    0  0.20035387923E+02  0.17305736461E+02  0.30700166673E+02  0.40538938287E+02  0.00000000000E+00 0.  1.
</event>
<event>
12    1  0.8297444E-002  0.2078670E+03  0.7818608E-02  0.1143300E+00
         21   -1    0    0  501  502  0.00000000000E+00  0.00000000000E+00  0.38963608306E+03  0.38963608306E+03  0.00000000000E+00 0. -1.
         21   -1    0    0  502  503 -0.00000000000E+00 -0.00000000000E+00 -0.13990805978E+03  0.13990805978E+03  0.00000000000E+00 0. -1.
         -6    2    1    2    0  503  0.11638722670E+03  0.13805284768E+02  0.24566233466E+03  0.32180535348E+03  0.17167448975E+03 0.  0.
        -24    2    3    3    0    0  0.22407179528E+02  0.62713242081E+02  0.11715239637E+03  0.15518863225E+03  0.76966195030E+02 0.  0.
          6    2    1    2  501    0 -0.11638722670E+03 -0.13805284768E+02  0.40656886135E+01  0.20773878935E+03  0.17147099566E+03 0.  0.
         24    2    5    5    0    0 -0.15024571833E+02  0.49507246423E+01  0.51670712325E+02  0.94096790193E+02  0.77033083666E+02 0.  0.
          5    1    5    5  501    0 -0.10136265487E+03 -0.18756009410E+02 -0.47605023712E+02  0.11364199916E+03  0.47000000000E+01 0. -1.
        -13    1    6    6    0    0 -0.21348618987E+02  0.37695338036E+02  0.39409368187E+02  0.58564497293E+02  0.00000000000E+00 0.  1.
         14    1    6    6    0    0  0.63240471534E+01 -0.32744613393E+02  0.12261344138E+02  0.35532292900E+02  0.00000000000E+00 0. -1.
         -5    1    3    3    0  503  0.93980047171E+02 -0.48907957313E+02  0.12850993829E+03  0.16661672123E+03  0.47000000000E+01 0.  1.
         11    1    4    4    0    0  0.17828153975E+02 -0.77140178544E+01  0.63867925698E+02  0.66756730586E+02  0.00000000000E+00 0. -1.
        -12    1    4    4    0    0  0.45790255535E+01  0.70427259936E+02  0.53284470676E+02  0.88431901666E+02  0.00000000000E+00 0.  1.
</event>
<event>
12    1  0.8297444E-002  0.1763030E+03  0.7818608E-02  0.1171600E+00
         21   -1    0    0  501  502  0.00000000000E+00  0.00000000000E+00  0.17269225245E+04  0.17269225245E+04  0.00000000000E+00 0.  1.
         21   -1    0    0  502  503 -0.00000000000E+00 -0.00000000000E+00 -0.26217548226E+02  0.26217548226E+02  0.00000000000E+00 0.  1.
         -6    2    1    2    0  503  0.22461626181E+02 -0.26509689077E+02  0.35635673117E+03  0.39728058165E+03  0.17214660160E+03 0.  0.
        -24    2    3    3    0    0 -0.29296457388E+02 -0.15265437959E+02  0.86969243553E+02  0.12269536558E+03  0.79994921090E+02 0.  0.
          6    2    1    2  501    0 -0.22461626181E+02  0.26509689077E+02  0.13443482451E+04  0.13558594911E+04  0.17284521156E+03 0.  0.
         24    2    5    5    0    0 -0.96970661189E+01  0.66221210774E+01  0.13178371069E+04  0.13200352004E+04  0.75235658658E+02 0.  0.
          5    1    5    5  501    0 -0.12764560062E+02  0.19887568000E+02  0.26511138173E+02  0.35824290666E+02  0.47000000000E+01 0. -1.
        -11    1    6    6    0    0 -0.32408256921E+02  0.46768459467E+01  0.11693801860E+04  0.11698385305E+04  0.00000000000E+00 0.  1.
         12    1    6    6    0    0  0.22711190803E+02  0.19452751308E+01  0.14845692098E+03  0.15019666997E+03  0.00000000000E+00 0. -1.
         -5    1    3    3    0  503  0.51758083569E+02 -0.11244251118E+02  0.26938748761E+03  0.27458521606E+03  0.47000000000E+01 0.  1.
         13    1    4    4    0    0  0.80275192529E+01 -0.40508092864E+02  0.45692597216E+02  0.61588636071E+02  0.00000000000E+00 0. -1.
        -14    1    4    4    0    0 -0.37323976641E+02  0.25242654905E+02  0.41276646337E+02  0.61106729513E+02  0.00000000000E+00 0.  1.
</event>
<event>
12    1  0.8297444E-002  0.2661032E+03  0.7818608E-02  0.1103601E+00
         21   -1    0    0  501  502  0.00000000000E+00  0.00000000000E+00  0.33000935186E+02  0.33000935186E+02  0.00000000000E+00 0. -1.
         21   -1    0    0  502  503 -0.00000000000E+00 -0.00000000000E+00 -0.21444190393E+04  0.21444190393E+04  0.00000000000E+00 0.  1.
         -6    2    1    2    0  503  0.12198433847E+03 -0.16329638418E+03 -0.10170125280E+04  0.10511276245E+04  0.17032003108E+03 0.  0.
        -24    2    3    3    0    0  0.11895993290E+03 -0.49906941599E+02 -0.52815848422E+03  0.54926441721E+03  0.78088713085E+02 0.  0.
          6    2    1    2  501    0 -0.12198433847E+03  0.16329638418E+03 -0.10944055762E+04  0.11262923500E+04  0.17107017466E+03 0.  0.
         24    2    5    5    0    0 -0.35398854731E+02  0.12582165280E+02 -0.31911920152E+03  0.33174664682E+03  0.82506866959E+02 0.  0.
          5    1    5    5  501    0 -0.86585483737E+02  0.15071421890E+03 -0.77528637466E+03  0.79454570322E+03  0.47000000000E+01 0. -1.
        -13    1    6    6    0    0  0.23154882907E+02  0.14924439199E+02 -0.15615995129E+03  0.15857117605E+03  0.00000000000E+00 0.  1.
         14    1    6    6    0    0 -0.58553737638E+02 -0.23422739190E+01 -0.16295925023E+03  0.17317547077E+03  0.00000000000E+00 0. -1.
         -5    1    3    3    0  503  0.30244055669E+01 -0.11338944258E+03 -0.48885404375E+03  0.50186320727E+03  0.47000000000E+01 0.  1.
         11    1    4    4    0    0  0.10330513181E+03 -0.23979072321E+02 -0.48549683600E+03  0.49694478963E+03  0.00000000000E+00 0. -1.
        -12    1    4    4    0    0  0.15654801095E+02 -0.25927869279E+02 -0.42661648214E+02  0.52319627588E+02  0.00000000000E+00 0.  1.
</event>
<event>
12    1  0.8297444E-002  0.2790010E+03  0.7818608E-02  0.1096624E+00
         21   -1    0    0  503  502  0.00000000000E+00  0.00000000000E+00  0.23888171466E+03  0.23888171466E+03  0.00000000000E+00 0.  1.
         21   -1    0    0  501  503 -0.00000000000E+00 -0.00000000000E+00 -0.32572688105E+03  0.32572688105E+03  0.00000000000E+00 0.  1.
          6    2    1    2  501    0  0.19556835510E+03  0.10102290479E+03 -0.71396183910E+02  0.28799123111E+03  0.17143198450E+03 0.  0.
         24    2    3    3    0    0  0.21555920569E+03  0.76249136249E+02 -0.79269642386E+02  0.25486337178E+03  0.79949735047E+02 0.  0.
         -6    2    1    2    0  502 -0.19556835510E+03 -0.10102290479E+03 -0.15448982479E+02  0.27661736460E+03  0.16681093049E+03 0.  0.
        -24    2    5    5    0    0 -0.10369612352E+03 -0.33953850783E+02 -0.68802817737E+02  0.15088953682E+03  0.78282019510E+02 0.  0.
          5    1    3    3  501    0 -0.19990850593E+02  0.24773768544E+02  0.78734584756E+01  0.33127859329E+02  0.47000000000E+01 0. -1.
        -13    1    4    4    0    0  0.14743396775E+03  0.78317558849E+02 -0.83329973219E+02  0.18658590329E+03  0.00000000000E+00 0.  1.
         14    1    4    4    0    0  0.68125237943E+02 -0.20684226008E+01  0.40603308331E+01  0.68277468489E+02  0.00000000000E+00 0. -1.
         -5    1    5    5    0  502 -0.91872231582E+02 -0.67069054010E+02  0.53353835257E+02  0.12572782778E+03  0.47000000000E+01 0.  1.
         13    1    6    6    0    0  0.32091063498E+01 -0.25688022160E+02 -0.21682292852E+02  0.33768249427E+02  0.00000000000E+00 0. -1.
        -14    1    6    6    0    0 -0.10690522987E+03 -0.82658286229E+01 -0.47120524885E+02  0.11712128740E+03  0.00000000000E+00 0.  1.
</event>
<event>
12    1  0.8297444E-002  0.1714931E+03  0.7818608E-02  0.1176889E+00
         21   -1    0    0  501  502  0.00000000000E+00  0.00000000000E+00  0.39678208167E+03  0.39678208167E+03  0.00000000000E+00 0. -1.
         21   -1    0    0  502  503 -0.00000000000E+00 -0.00000000000E+00 -0.20873694338E+03  0.20873694338E+03  0.00000000000E+00 0. -1.
         -6    2    1    2    0  503  0.67577766804E+01 -0.96704302234E+01 -0.15021124445E+03  0.22627338974E+03  0.16881067555E+03 0.  0.
        -24    2    3    3    0    0  0.65414397800E+02 -0.19365207845E+02 -0.11255520224E+03  0.15574215248E+03  0.83263976567E+02 0.  0.
          6    2    1    2  501    0 -0.67577766804E+01  0.96704302234E+01  0.33825638274E+03  0.37924563531E+03  0.17108678111E+03 0.  0.
         24    2    5    5    0    0 -0.50924443338E+02 -0.21953693325E+02  0.12018737674E+03  0.15446360531E+03  0.79616180873E+02 0.  0.
          5    1    5    5  501    0  0.44166666658E+02  0.31624123548E+02  0.21806900600E+03  0.22478203000E+03  0.47000000000E+01 0. -1.
        -13    1    6    6    0    0 -0.43770815144E+02  0.24361880108E+02  0.64965223366E+02  0.82035758714E+02  0.00000000000E+00 0.  1.
         14    1    6    6    0    0 -0.71536281941E+01 -0.46315573433E+02  0.55222153375E+02  0.72427846593E+02  0.00000000000E+00 0. -1.
         -5    1    3    3    0  503 -0.58656621119E+02  0.96947776219E+01 -0.37656042210E+02  0.70531237258E+02  0.47000000000E+01 0.  1.
         13    1    4    4    0    0  0.83830110945E+02 -0.11149053126E+02 -0.74630892388E+02  0.11278988867E+03  0.00000000000E+00 0. -1.
        -14    1    4    4    0    0 -0.18415713146E+02 -0.82161547199E+01 -0.37924309854E+02  0.42952263816E+02  0.00000000000E+00 0.  1.
</event>
<event>
12    1  0.8297444E-002  0.2276175E+03  0.7818608E-02  0.1130010E+00
         21   -1    0    0  501  502  0.00000000000E+00  0.00000000000E+00  0.16820193940E+03  0.16820193940E+03  0.00000000000E+00 0. -1.
         21   -1    0    0  502  503 -0.00000000000E+00 -0.00000000000E+00 -0.62711816812E+03  0.62711816812E+03  0.00000000000E+00 0. -1.
         -6    2    1    2    0  503 -0.73129092384E+02 -0.11156867947E+03 -0.51629161840E+03  0.56058270273E+03  0.17291760170E+03 0.  0.
        -24    2    3    3    0    0 -0.57910224529E+02 -0.10826325054E+03 -0.22099530929E+03  0.26483865803E+03  0.78905402472E+02 0.  0.
          6    2    1    2  501    0  0.73129092384E+02  0.11156867947E+03  0.57375389672E+02  0.23473740479E+03  0.18442960575E+03 0.  0.
         24    2    5    5    0    0  0.10339531292E+03  0.13321733268E+03  0.32392176682E+02  0.18967123985E+03  0.80551087238E+02 0.  0.
          5    1    5    5  501    0 -0.30266220538E+02 -0.21648653206E+02  0.24983212990E+02  0.45066164942E+02  0.47000000000E+01 0. -1.
        -11    1    6    6    0    0  0.30013117159E+02  0.85623326717E+01 -0.18556371932E+02  0.36310324725E+02  0.00000000000E+00 0.  1.
         12    1    6    6    0    0  0.73382195763E+02  0.12465500001E+03  0.50948548614E+02  0.15336091512E+03  0.00000000000E+00 0. -1.
         -5    1    3    3    0  503 -0.15218867855E+02 -0.33054289328E+01 -0.29529630911E+03  0.29574404470E+03  0.47000000000E+01 0.  1.
         11    1    4    4    0    0 -0.14828632423E+02 -0.27901385694E+02 -0.13790065729E+03  0.14147426248E+03  0.00000000000E+00 0. -1.
        -12    1    4    4    0    0 -0.43081592106E+02 -0.80361864844E+02 -0.83094652000E+02  0.12336439555E+03  0.00000000000E+00 0.  1.
</event>
<event>
12    1  0.8297444E-002  0.1938942E+03  0.7818608E-02  0.1156132E+00
         21   -1    0    0  501  502  0.00000000000E+00  0.00000000000E+00  0.92044568346E+02  0.92044568346E+02  0.00000000000E+00 0. -1.
         21   -1    0    0  502  503 -0.00000000000E+00 -0.00000000000E+00 -0.39809344507E+03  0.39809344507E+03  0.00000000000E+00 0. -1.
         -6    2    1    2    0  503 -0.66441278146E+02  0.26662628590E+02 -0.16206392732E+03  0.25270470678E+03  0.18019326593E+03 0.  0.
        -24    2    3    3    0    0 -0.56739070172E+02  0.42044316766E+02 -0.19022187211E+02  0.10843496434E+03  0.80057799297E+02 0.  0.
          6    2    1    2  501    0  0.66441278146E+02 -0.26662628590E+02 -0.14398494940E+03  0.23743330663E+03  0.17469278817E+03 0.  0.
         24    2    5    5    0    0  0.21508177684E+02 -0.81469591864E+02 -0.63079423964E+02  0.12977374697E+03  0.75909917463E+02 0.  0.
          5    1    5    5  501    0  0.44933100462E+02  0.54806963274E+02 -0.80905525431E+02  0.10765955966E+03  0.47000000000E+01 0. -1.
        -13    1    6    6    0    0  0.35338515487E+02 -0.24110367288E+02  0.83574682769E+00  0.42788070304E+02  0.00000000000E+00 0.  1.
         14    1    6    6    0    0 -0.13830337803E+02 -0.57359224576E+02 -0.63915170792E+02  0.86985676666E+02  0.00000000000E+00 0. -1.
         -5    1    3    3    0  503 -0.97022079742E+01 -0.15381688177E+02 -0.14304174011E+03  0.14426974244E+03  0.47000000000E+01 0.  1.
         11    1    4    4    0    0 -0.27140873034E+02 -0.10617891225E+02  0.21042692367E+02  0.35946648038E+02  0.00000000000E+00 0. -1.
        -12    1    4    4    0    0 -0.29598197138E+02  0.52662207992E+02 -0.40064879578E+02  0.72488316300E+02  0.00000000000E+00 0.  1.
</event>
<event>
12    1  0.8297444E-002  0.2137988E+03  0.7818608E-02  0.1139932E+00
         21   -1    0    0  503  502  0.00000000000E+00  0.00000000000E+00  0.65817042158E+03  0.65817042158E+03  0.00000000000E+00 0. -1.
         21   -1    0    0  501  503 -0.00000000000E+00 -0.00000000000E+00 -0.72481684475E+02  0.72481684475E+02  0.00000000000E+00 0.  1.
          6    2    1    2  501    0  0.26256323505E+02  0.11258487087E+03  0.19916198006E+03  0.29219072751E+03  0.17984765572E+03 0.  0.
         24    2    3    3    0    0  0.13017228908E+02  0.10415692929E+03  0.50241261953E+02  0.14237158952E+03  0.82020551888E+02 0.  0.
         -6    2    1    2    0  502 -0.26256323505E+02 -0.11258487087E+03  0.38652675704E+03  0.43846137855E+03  0.17169944349E+03 0.  0.
        -24    2    5    5    0    0 -0.51273102204E+02 -0.12679478641E+03  0.37472094601E+03  0.40700938195E+03  0.80839351449E+02 0.  0.
          5    1    3    3  501    0  0.13239094597E+02  0.84279415779E+01  0.14892071811E+03  0.14981913799E+03  0.47000000000E+01 0. -1.
        -11    1    4    4    0    0  0.15847255277E+02  0.11469896367E+03  0.30378622817E+02  0.11970734518E+03  0.00000000000E+00 0.  1.
         12    1    4    4    0    0 -0.28300263688E+01 -0.10542034375E+02  0.19862639136E+02  0.22664244339E+02  0.00000000000E+00 0. -1.
         -5    1    5    5    0  502  0.25016778699E+02  0.14209915535E+02  0.11805811030E+02  0.31451996599E+02  0.47000000000E+01 0.  1.
         11    1    6    6    0    0 -0.70691986473E+02 -0.72988737521E+02  0.23433720013E+03  0.25541855085E+03  0.00000000000E+00 0. -1.
        -12    1    6    6    0    0  0.19418884269E+02 -0.53806048886E+02  0.14038374589E+03  0.15159083109E+03  0.00000000000E+00 0.  1.
</event>
<event>
12    1  0.8297444E-002  0.2215765E+03  0.7818608E-02  0.1136160E+00
         21   -1    0    0  503  502  0.00000000000E+00  0.00000000000E+00  0.79947395843E+02  0.79947395843E+02  0.00000000000E+00 0.  1.
         21   -1    0    0  501  503 -0.00000000000E+00 -0.00000000000E+00 -0.56941657321E+03  0.56941657321E+03  0.00000000000E+00 0. -1.
          6    2    1    2  501    0  0.10795309882E+03 -0.90699659556E+00 -0.20808951369E+03  0.29121500597E+03  0.17277221943E+03 0.  0.
         24    2    3    3    0    0  0.92396796440E+02 -0.15684267736E+02 -0.52438890568E+02  0.13402221744E+03  0.80180753785E+02 0.  0.
         -6    2    1    2    0  502 -0.10795309882E+03  0.90699659556E+00 -0.28137966368E+03  0.35814896309E+03  0.19349798562E+03 0.  0.
        -24    2    5    5    0    0 -0.39155844221E+01  0.10311414453E+02 -0.22587719116E+03  0.23976458095E+03  0.79654828638E+02 0.  0.
          5    1    3    3  501    0  0.15556302381E+02  0.14777271141E+02 -0.15565062312E+03  0.15719278852E+03  0.47000000000E+01 0. -1.
        -13    1    4    4    0    0  0.12025886878E+02 -0.26748869942E+02  0.10700573730E+02  0.31219005053E+02  0.00000000000E+00 0.  1.
         14    1    4    4    0    0  0.80370909562E+02  0.11064602205E+02 -0.63139464298E+02  0.10280321239E+03  0.00000000000E+00 0. -1.
         -5    1    5    5    0  502 -0.10403751440E+03 -0.94044178578E+01 -0.55502472526E+02  0.11838438214E+03  0.47000000000E+01 0.  1.
         11    1    6    6    0    0  0.93218036812E+01 -0.13207336847E+02 -0.20501960342E+03  0.20565594461E+03  0.00000000000E+00 0. -1.
        -12    1    6    6    0    0 -0.13237388103E+02  0.23518751300E+02 -0.20857587742E+02  0.34108636339E+02  0.00000000000E+00 0.  1.
</event>
<event>
12    1  0.8297444E-002  0.2116349E+03  0.7818608E-02  0.1140957E+00
         21   -1    0    0  501  502  0.00000000000E+00  0.00000000000E+00  0.87445603168E+03  0.87445603168E+03  0.00000000000E+00 0.  1.
         21   -1    0    0  502  503 -0.00000000000E+00 -0.00000000000E+00 -0.63959270395E+02  0.63959270395E+02  0.00000000000E+00 0.  1.
         -6    2    1    2    0  503  0.43133860515E+02  0.10963386328E+03  0.19175863566E+03  0.28558837444E+03  0.17581021404E+03 0.  0.
        -24    2    3    3    0    0 -0.21465314095E+02  0.11107336341E+03  0.16060414694E+03  0.21370083943E+03  0.84120776228E+02 0.  0.
          6    2    1    2  501    0 -0.43133860515E+02 -0.10963386328E+03  0.61873812562E+03  0.65282692764E+03  0.17165667902E+03 0.  0.
         24    2    5    5    0    0  0.12300806569E+01 -0.12254365059E+02  0.13871913416E+03  0.16100251983E+03  0.80790659418E+02 0.  0.
          5    1    5    5  501    0 -0.44363941172E+02 -0.97379498226E+02  0.48001899146E+03  0.49182440781E+03  0.47000000000E+01 0. -1.
        -13    1    6    6    0    0 -0.27626707656E+02 -0.14653805526E+02  0.12519846246E+03  0.12904504638E+03  0.00000000000E+00 0.  1.
         14    1    6    6    0    0  0.28856788313E+02  0.23994404670E+01  0.13520671696E+02  0.31957473452E+02  0.00000000000E+00 0. -1.
         -5    1    3    3    0  503  0.64599174609E+02 -0.14395001247E+01  0.31154488728E+02  0.71887535002E+02  0.47000000000E+01 0.  1.
         11    1    4    4    0    0 -0.28430248384E+02  0.42630671224E+02  0.16191237609E+02  0.53738341317E+02  0.00000000000E+00 0. -1.
        -12    1    4    4    0    0  0.69649342896E+01  0.68442692185E+02  0.14441290933E+03  0.15996249812E+03  0.00000000000E+00 0.  1.
</event>
<event>
12    1  0.8297444E-002  0.2307730E+03  0.7818608E-02  0.1126115E+00
         21   -1    0    0  503  502  0.00000000000E+00  0.00000000000E+00  0.58595009320E+03  0.58595009320E+03  0.00000000000E+00 0.  1.
         21   -1    0    0  501  503 -0.00000000000E+00 -0.00000000000E+00 -0.93401908074E+02  0.93401908074E+02  0.00000000000E+00 0.  1.
          6    2    1    2  501    0  0.51780018464E+02  0.14497135782E+03  0.19014855365E+03  0.29901948429E+03  0.17192531702E+03 0.  0.
         24    2    3    3    0    0  0.70874022770E+02  0.13611539177E+03  0.20555409553E+03  0.27251609100E+03  0.91989166135E+02 0.  0.
         -6    2    1    2    0  502 -0.51780018464E+02 -0.14497135782E+03  0.30239963148E+03  0.38033251698E+03  0.17178306509E+03 0.  0.
        -24    2    5    5    0    0 -0.73222704018E+02 -0.10841145877E+03  0.12314970519E+03  0.19607986149E+03  0.78529315642E+02 0.  0.
          5    1    3    3  501    0 -0.19094004306E+02  0.88559660569E+01 -0.15405541884E+02  0.26503393291E+02  0.47000000000E+01 0. -1.
        -11    1    4    4    0    0  0.72017377661E+02  0.48241859463E+02  0.72217433841E+02  0.11282347912E+03  0.00000000000E+00 0.  1.
         12    1    4    4    0    0 -0.11433548914E+01  0.87873532303E+02  0.13333666169E+03  0.15969261188E+03  0.00000000000E+00 0. -1.
         -5    1    5    5    0  502  0.21442685554E+02 -0.36559899050E+02  0.17924992628E+03  0.18425265549E+03  0.47000000000E+01 0.  1.
         13    1    6    6    0    0  0.14287831011E+02 -0.20809661374E+02  0.67355794403E+01  0.26125699070E+02  0.00000000000E+00 0. -1.
        -14    1    6    6    0    0 -0.87510535029E+02 -0.87601797399E+02  0.11641412575E+03  0.16995416242E+03  0.00000000000E+00 0.  1.
</event>
<event>
12    1  0.8297444E-002  0.1872836E+03  0.7818608E-02  0.1161680E+00
         21   -1    0    0  503  502  0.00000000000E+00  0.00000000000E+00  0.15494676560E+03  0.15494676560E+03  0.00000000000E+00 0. -1.
         21   -1    0    0  501  503 -0.00000000000E+00 -0.00000000000E+00 -0.27134145746E+03  0.27134145746E+03  0.00000000000E+00 0.  1.
          6    2    1    2  501    0 -0.72764108206E+02  0.30163609424E+01 -0.14903882637E+03  0.23934849927E+03  0.17254396096E+03 0.  0.
         24    2    3    3    0    0 -0.84442711927E+02  0.31535724487E+02 -0.41180573154E+02  0.12707545412E+03  0.79544062743E+02 0.  0.
         -6    2    1    2    0  502  0.72764108206E+02 -0.30163609424E+01  0.32644134510E+02  0.18693972378E+03  0.16904764693E+03 0.  0.
        -24    2    5    5    0    0  0.54206473993E+02 -0.15283372908E+02 -0.44147759979E+02  0.10685258106E+03  0.79350652529E+02 0.  0.
          5    1    3    3  501    0  0.11678603721E+02 -0.28519363545E+02 -0.10785825322E+03  0.11227304516E+03  0.47000000000E+01 0. -1.
        -13    1    4    4    0    0 -0.40907834400E+02  0.22211031242E+01 -0.58841831537E+02  0.71698991297E+02  0.00000000000E+00 0.  1.
         14    1    4    4    0    0 -0.43534877527E+02  0.29314621363E+02  0.17661258383E+02  0.55376462821E+02  0.00000000000E+00 0. -1.
         -5    1    5    5    0  502  0.18557634213E+02  0.12267011966E+02  0.76791894489E+02  0.80087142721E+02  0.47000000000E+01 0.  1.
         11    1    6    6    0    0 -0.85782622093E+01  0.21572017970E+02 -0.35188693089E+01  0.23480225362E+02  0.00000000000E+00 0. -1.
        -12    1    6    6    0    0  0.62784736202E+02 -0.36855390878E+02 -0.40628890670E+02  0.83372355693E+02  0.00000000000E+00 0.  1.
</event>
<event>
12    1  0.8297444E-002  0.2542222E+03  0.7818608E-02  0.1110699E+00
         21   -1    0    0  501  502  0.00000000000E+00  0.00000000000E+00  0.48688524136E+03  0.48688524136E+03  0.00000000000E+00 0.  1.
         21   -1    0    0  502  503 -0.00000000000E+00 -0.00000000000E+00 -0.23282989974E+03  0.23282989974E+03  0.00000000000E+00 0. -1.
         -6    2    1    2    0  503 -0.17780800937E+03 -0.63883973072E+02 -0.10901780478E+03  0.27661128893E+03  0.17009430677E+03 0.  0.
        -24    2    3    3    0    0 -0.94147405506E+02  0.11523229309E+02 -0.65723509264E+01  0.12428760783E+03  0.80048078590E+02 0.  0.
          6    2    1    2  501    0  0.17780800937E+03  0.63883973072E+02  0.36307314639E+03  0.44310385218E+03  0.16977062164E+03 0.  0.
         24    2    5    5    0    0  0.19946161794E+03  0.59449603700E+02  0.28510906044E+03  0.36193100515E+03  0.79922986264E+02 0.  0.
          5    1    5    5  501    0 -0.21653608573E+02  0.44343693722E+01  0.77964085955E+02  0.81172847028E+02  0.47000000000E+01 0. -1.
        -13    1    6    6    0    0  0.78900162480E+02 -0.13733712426E+02  0.81653087857E+02  0.11437253715E+03  0.00000000000E+00 0.  1.
         14    1    6    6    0    0  0.12056145546E+03  0.73183316126E+02  0.20345597258E+03  0.24755846800E+03  0.00000000000E+00 0. -1.
         -5    1    3    3    0  503 -0.83660603859E+02 -0.75407202381E+02 -0.10244545385E+03  0.15232368110E+03  0.47000000000E+01 0.  1.
         13    1    4    4    0    0 -0.37445742650E+02  0.69203282487E+01 -0.42453027055E+02  0.57029238921E+02  0.00000000000E+00 0. -1.
        -14    1    4    4    0    0 -0.56701662855E+02  0.46029010603E+01  0.35880676129E+02  0.67258368908E+02  0.00000000000E+00 0.  1.
</event>
<event>
12    1  0.8297444E-002  0.2566053E+03  0.7818608E-02  0.1109936E+00
         21   -1    0    0  501  502  0.00000000000E+00  0.00000000000E+00  0.63025971631E+03  0.63025971631E+03  0.00000000000E+00 0. -1.
         21   -1    0    0  502  503 -0.00000000000E+00 -0.00000000000E+00 -0.10853106386E+03  0.10853106386E+03  0.00000000000E+00 0. -1.
         -6    2    1    2    0  503  0.16307364515E+03 -0.85361653379E+02  0.17177920643E+03  0.30484274990E+03  0.17187606232E+03 0.  0.
        -24    2    3    3    0    0  0.50869917339E+02 -0.31510159753E+02  0.14352496418E+03  0.17713193554E+03  0.84827286812E+02 0.  0.
          6    2    1    2  501    0 -0.16307364515E+03  0.85361653379E+02  0.34994944602E+03  0.43394803026E+03  0.17879220506E+03 0.  0.
         24    2    5    5    0    0 -0.14370218716E+03  0.10200233150E+03  0.35813197125E+03  0.40672287145E+03  0.78167711369E+02 0.  0.
          5    1    5    5  501    0 -0.19371457991E+02 -0.16640678124E+02 -0.81825252362E+01  0.27225158812E+02  0.47000000000E+01 0. -1.
        -13    1    6    6    0    0 -0.81768914238E+01  0.32411235561E+02  0.29859603726E+02  0.44821263688E+02  0.00000000000E+00 0.  1.
         14    1    6    6    0    0 -0.13552529574E+03  0.69591095942E+02  0.32827236753E+03  0.36190160776E+03  0.00000000000E+00 0. -1.
         -5    1    3    3    0  503  0.11220372781E+03 -0.53851493626E+02  0.28254242250E+02  0.12771081437E+03  0.47000000000E+01 0.  1.
         13    1    4    4    0    0  0.56774792401E+02 -0.41274143601E+02  0.14882739304E+03  0.16454946035E+03  0.00000000000E+00 0. -1.
        -14    1    4    4    0    0 -0.59048750614E+01  0.97639838478E+01 -0.53024288621E+01  0.12582475190E+02  0.00000000000E+00 0.  1.
</event>
<event>
12    1  0.8297444E-002  0.3427927E+03  0.7818608E-02  0.1065651E+00
         21   -1    0    0  503  502  0.00000000000E+00  0.00000000000E+00  0.37173654359E+03  0.37173654359E+03  0.00000000000E+00 0.  1.
         21   -1    0    0  501  503 -0.00000000000E+00 -0.00000000000E+00 -0.10626689975E+04  0.10626689975E+04  0.00000000000E+00 0. -1.
          6    2    1    2  501    0  0.33897024627E+02 -0.29410594655E+03 -0.94668852523E+03  0.10067164252E+04  0.17207986766E+03 0.  0.
         24    2    3    3    0    0  0.83015665467E+01 -0.28572956313E+03 -0.72626439741E+03  0.78460344178E+03  0.80201537680E+02 0.  0.
         -6    2    1    2    0  502 -0.33897024627E+02  0.29410594655E+03  0.25575607131E+03  0.42768911591E+03  0.17279900398E+03 0.  0.
        -24    2    5    5    0    0 -0.53381454403E+02  0.11377702938E+03  0.73261386172E+02  0.17034778328E+03  0.88636022457E+02 0.  0.
          5    1    3    3  501    0  0.25595458081E+02 -0.83763834260E+01 -0.22042412782E+03  0.22211298341E+03  0.47000000000E+01 0. -1.
        -11    1    4    4    0    0  0.15441827955E+02 -0.65832173856E+02 -0.99133705803E+02  0.11999923663E+03  0.00000000000E+00 0.  1.
         12    1    4    4    0    0 -0.71402614085E+01 -0.21989738927E+03 -0.62713069161E+03  0.66460420515E+03  0.00000000000E+00 0. -1.
         -5    1    5    5    0  502  0.19484429776E+02  0.18032891718E+03  0.18249468514E+03  0.25734133263E+03  0.47000000000E+01 0.  1.
         13    1    6    6    0    0 -0.33827224698E+02  0.69263357268E+02  0.90394920450E+02  0.11879787639E+03  0.00000000000E+00 0. -1.
        -14    1    6    6    0    0 -0.19554229706E+02  0.44513672108E+02 -0.17133534278E+02  0.51549906894E+02  0.00000000000E+00 0.  1.
</event>
<event>
12    1  0.8297444E-002  0.1749436E+03  0.7818608E-02  0.1173449E+00
         21   -1    0    0  503  502  0.00000000000E+00  0.00000000000E+00  0.82950298104E+03  0.82950298104E+03  0.00000000000E+00 0. -1.
         21   -1    0    0  501  503 -0.00000000000E+00 -0.00000000000E+00 -0.40533193570E+02  0.40533193570E+02  0.00000000000E+00 0. -1.
          6    2    1    2  501    0 -0.18748996676E+02 -0.22214545457E+02  0.25204226300E+03  0.30532702667E+03  0.16986547609E+03 0.  0.
         24    2    3    3    0    0  0.29003497748E+01 -0.27819300830E+02  0.26546939098E+03  0.27882258836E+03  0.80533922690E+02 0.  0.
         -6    2    1    2    0  502  0.18748996676E+02  0.22214545457E+02  0.53692752447E+03  0.56470914795E+03  0.17251157739E+03 0.  0.
        -24    2    5    5    0    0 -0.16924229664E+02  0.37025527064E+01  0.50887367251E+03  0.51547113861E+03  0.80361319834E+02 0.  0.
          5    1    3    3  501    0 -0.21649346451E+02  0.56047553720E+01 -0.13427127975E+02  0.26504438311E+02  0.47000000000E+01 0. -1.
        -11    1    4    4    0    0 -0.37269383214E+02 -0.21473646932E+01  0.12725430382E+03  0.13261702734E+03  0.00000000000E+00 0.  1.
         12    1    4    4    0    0  0.40169732989E+02 -0.25671936136E+02  0.13821508715E+03  0.14620556101E+03  0.00000000000E+00 0. -1.
         -5    1    5    5    0  502  0.35673226340E+02  0.18511992751E+02  0.28053851964E+02  0.49238009333E+02  0.47000000000E+01 0.  1.
         11    1    6    6    0    0  0.29514607368E+02 -0.46391957406E+01  0.29199599969E+03  0.29352052402E+03  0.00000000000E+00 0. -1.
        -12    1    6    6    0    0 -0.46438837032E+02  0.83417484470E+01  0.21687767282E+03  0.22195061459E+03  0.00000000000E+00 0.  1.
</event>
<event>
12    1  0.8297444E-002  0.2005651E+03  0.7818608E-02  0.1149819E+00
         21   -1    0    0  501  502  0.00000000000E+00  0.00000000000E+00  0.92615068149E+02  0.92615068149E+02  0.00000000000E+00 0.  1.
         21   -1    0    0  502  503 -0.00000000000E+00 -0.00000000000E+00 -0.66508033376E+03  0.66508033376E+03  0.00000000000E+00 0.  1.
         -6    2    1    2    0  503 -0.49815813668E+02  0.84317286369E+02 -0.51088477001E+03  0.54788951071E+03  0.17201351007E+03 0.  0.
        -24    2    3    3    0    0 -0.60544357650E+02  0.19443364327E+02 -0.43784271542E+03  0.44949764542E+03  0.79361364217E+02 0.  0.
          6    2    1    2  501    0  0.49815813668E+02 -0.84317286369E+02 -0.61580495605E+02  0.20980589120E+03  0.17502952457E+03 0.  0.
         24    2    5    5    0    0 -0.37563595798E+02 -0.19146801301E+02 -0.34338684412E+02  0.97348967894E+02  0.80746842499E+02 0.  0.
          5    1    5    5  501    0  0.87379409466E+02 -0.65170485069E+02 -0.27241811193E+02  0.11245692331E+03  0.47000000000E+01 0. -1.
        -13    1    6    6    0    0 -0.39995032511E+02 -0.46632046404E+02 -0.32970852025E+02  0.69722503258E+02  0.00000000000E+00 0.  1.
         14    1    6    6    0    0  0.24314367127E+01  0.27485245103E+02 -0.13678323865E+01  0.27626464636E+02  0.00000000000E+00 0. -1.
         -5    1    3    3    0  503  0.10728543983E+02  0.64873922043E+02 -0.73042054591E+02  0.98391865294E+02  0.47000000000E+01 0.  1.
         11    1    4    4    0    0 -0.60528374349E+01 -0.22868568778E+02 -0.47053135460E+02  0.52665034278E+02  0.00000000000E+00 0. -1.
        -12    1    4    4    0    0 -0.54491520215E+02  0.42311933105E+02 -0.39078957996E+03  0.39683261114E+03  0.00000000000E+00 0.  1.
</event>
<event>
12    1  0.8297444E-002  0.2709635E+03  0.7818608E-02  0.1100842E+00
         21   -1    0    0  501  502  0.00000000000E+00  0.00000000000E+00  0.42351443770E+03  0.42351443770E+03  0.00000000000E+00 0. -1.
         21   -1    0    0  502  503 -0.00000000000E+00 -0.00000000000E+00 -0.22646048422E+03  0.22646048422E+03  0.00000000000E+00 0. -1.
         -6    2    1    2    0  503  0.17204585984E+03  0.11995902370E+03  0.25652997636E+03  0.37256077448E+03  0.17030548040E+03 0.  0.
        -24    2    3    3    0    0  0.70372194224E+02 -0.62284072331E+01  0.74340891531E+02  0.12868425934E+03  0.77730506699E+02 0.  0.
          6    2    1    2  501    0 -0.17204585984E+03 -0.11995902370E+03 -0.59476022882E+02  0.27741414744E+03  0.17155543317E+03 0.  0.
         24    2    5    5    0    0 -0.14730427942E+03 -0.13246365308E+03  0.36972940284E+00  0.21129217209E+03  0.73478399303E+02 0.  0.
          5    1    5    5  501    0 -0.24741580416E+02  0.12504629385E+02 -0.59845752284E+02  0.66121975349E+02  0.47000000000E+01 0. -1.
        -11    1    6    6    0    0 -0.48236724557E+02 -0.10266600941E+02  0.19067024553E+02  0.52874720956E+02  0.00000000000E+00 0.  1.
         12    1    6    6    0    0 -0.99067554865E+02 -0.12219705214E+03 -0.18697295150E+02  0.15841745114E+03  0.00000000000E+00 0. -1.
         -5    1    3    3    0  503  0.10167366561E+03  0.12618743093E+03  0.18218908483E+03  0.24387651514E+03  0.47000000000E+01 0.  1.
         13    1    4    4    0    0  0.73527448140E+02  0.71739397566E+01  0.84000328937E+02  0.11186512550E+03  0.00000000000E+00 0. -1.
        -14    1    4    4    0    0 -0.31552539160E+01 -0.13402346990E+02 -0.96594374063E+01  0.16819133840E+02  0.00000000000E+00 0.  1.
</event>
<event>
12    1  0.8297444E-002  0.1959908E+03  0.7818608E-02  0.1154022E+00
         21   -1    0    0  503  502  0.00000000000E+00  0.00000000000E+00  0.58043035847E+03  0.58043035847E+03  0.00000000000E+00 0. -1.
         21   -1    0    0  501  503 -0.00000000000E+00 -0.00000000000E+00 -0.66900576381E+02  0.66900576381E+02  0.00000000000E+00 0.  1.
          6    2    1    2  501    0 -0.63092261852E+02 -0.56014831968E+02  0.19782390381E+03  0.27573629387E+03  0.17256277679E+03 0.  0.
         24    2    3    3    0    0 -0.53875994077E+02  0.14621376705E+02  0.45739680083E+02  0.10773000032E+03  0.79982668372E+02 0.  0.
         -6    2    1    2    0  502  0.63092261852E+02  0.56014831968E+02  0.31570587827E+03  0.37159464097E+03  0.17690133046E+03 0.  0.
        -24    2    5    5    0    0 -0.31148379183E+02  0.42606725917E+02  0.19584023960E+03  0.21845765307E+03  0.81146732020E+02 0.  0.
          5    1    3    3  501    0 -0.92162677751E+01 -0.70636208673E+02  0.15208422373E+03  0.16800629356E+03  0.47000000000E+01 0. -1.
        -13    1    4    4    0    0  0.17668481303E+02  0.11038781121E+01 -0.56818752958E+01  0.18592403968E+02  0.00000000000E+00 0.  1.
         14    1    4    4    0    0 -0.71544475380E+02  0.13517498593E+02  0.51421555379E+02  0.89137596350E+02  0.00000000000E+00 0. -1.
         -5    1    5    5    0  502  0.94240641035E+02  0.13408106052E+02  0.11986563867E+03  0.15313698791E+03  0.47000000000E+01 0.  1.
         11    1    6    6    0    0 -0.21732320524E+01  0.49186317357E+02  0.17593368105E+03  0.18269284847E+03  0.00000000000E+00 0. -1.
        -12    1    6    6    0    0 -0.28975147130E+02 -0.65795914404E+01  0.19906558548E+02  0.35764804599E+02  0.00000000000E+00 0.  1.
</event>
<event>
12    1  0.8297444E-002  0.2023015E+03  0.7818608E-02  0.1151287E+00
         21   -1    0    0  503  502  0.00000000000E+00  0.00000000000E+00  0.71930805799E+03  0.71930805799E+03  0.00000000000E+00 0.  1.
         21   -1    0    0  501  503 -0.00000000000E+00 -0.00000000000E+00 -0.52991424702E+02  0.52991424702E+02  0.00000000000E+00 0. -1.
          6    2    1    2  501    0 -0.45564489838E+02  0.57684192965E+02  0.30902052870E+03  0.36935019855E+03  0.18847358743E+03 0.  0.
         24    2    3    3    0    0 -0.10490961221E+03  0.55550001794E+02  0.21801648218E+03  0.26058336167E+03  0.79250693654E+02 0.  0.
         -6    2    1    2    0  502  0.45564489838E+02 -0.57684192965E+02  0.35729610460E+03  0.40294928415E+03  0.17118420016E+03 0.  0.
        -24    2    5    5    0    0  0.28499039804E+02  0.23255495659E+02  0.24219708737E+03  0.26113131439E+03  0.90427434317E+02 0.  0.
          5    1    3    3  501    0  0.59345122375E+02  0.21341911705E+01  0.91004046521E+02  0.10876683688E+03  0.47000000000E+01 0. -1.
        -13    1    4    4    0    0 -0.78936962573E+02 -0.21269690616E+01  0.11000980553E+03  0.13541685778E+03  0.00000000000E+00 0.  1.
         14    1    4    4    0    0 -0.25972649640E+02  0.57676970856E+02  0.10800667665E+03  0.12516650390E+03  0.00000000000E+00 0. -1.
         -5    1    5    5    0  502  0.17065450035E+02 -0.80939688624E+02  0.11509901723E+03  0.14181796976E+03  0.47000000000E+01 0.  1.
         13    1    6    6    0    0  0.19977494271E+02  0.40238783204E+02  0.47021318466E+02  0.65032794353E+02  0.00000000000E+00 0. -1.
        -14    1    6    6    0    0  0.85215455324E+01 -0.16983287545E+02  0.19517576890E+03  0.19609852004E+03  0.00000000000E+00 0.  1.
</event>
<event>
12    1  0.8297444E-002  0.2156068E+03  0.7818608E-02  0.1137249E+00
         21   -1    0    0  503  502  0.00000000000E+00  0.00000000000E+00  0.54197296592E+02  0.54197296592E+02  0.00000000000E+00 0. -1.
         21   -1    0    0  501  503 -0.00000000000E+00 -0.00000000000E+00 -0.86213395142E+03  0.86213395142E+03  0.00000000000E+00 0. -1.
          6    2    1    2  501    0  0.24815988813E+02  0.12817706469E+03 -0.43999646882E+03  0.48987344125E+03  0.17127142977E+03 0.  0.
         24    2    3    3    0    0 -0.22524645076E+01  0.92476576307E+01 -0.10190983867E+03  0.13042724985E+03  0.80839714971E+02 0.  0.
         -6    2    1    2    0  502 -0.24815988813E+02 -0.12817706469E+03 -0.36794018600E+03  0.42645780676E+03  0.17158405303E+03 0.  0.
        -24    2    5    5    0    0 -0.71153526048E+02 -0.12468955963E+03 -0.31845634257E+03  0.35841318309E+03  0.80220054497E+02 0.  0.
          5    1    3    3  501    0  0.27068453321E+02  0.11892940706E+03 -0.33808663015E+03  0.35944619140E+03  0.47000000000E+01 0. -1.
        -11    1    4    4    0    0 -0.19004165928E+02  0.41049944500E+02 -0.52016267521E+02  0.68934377148E+02  0.00000000000E+00 0.  1.
         12    1    4    4    0    0  0.16751701420E+02 -0.31802286869E+02 -0.49893571152E+02  0.61492872699E+02  0.00000000000E+00 0. -1.
         -5    1    5    5    0  502  0.46337537235E+02 -0.34875050583E+01 -0.49483843434E+02  0.68044623664E+02  0.47000000000E+01 0.  1.
         11    1    6    6    0    0 -0.31328427607E+02 -0.10272754817E+03 -0.15376898864E+03  0.18756151364E+03  0.00000000000E+00 0. -1.
        -12    1    6    6    0    0 -0.39825098441E+02 -0.21962011459E+02 -0.16468735392E+03  0.17085166946E+03  0.00000000000E+00 0.  1.
</event>
<event>
12    1  0.8297444E-002  0.1987607E+03  0.7818608E-02  0.1151022E+00
         21   -1    0    0  503  502  0.00000000000E+00  0.00000000000E+00  0.14603848646E+04  0.14603848646E+04  0.00000000000E+00 0.  1.
         21   -1    0    0  501  503 -0.00000000000E+00 -0.00000000000E+00 -0.26902945882E+02  0.26902945882E+02  0.00000000000E+00 0.  1.
          6    2    1    2  501    0  0.30361732269E+02 -0.96616319019E+02  0.71996593017E+03  0.74689809435E+03  0.17102419375E+03 0.  0.
         24    2    3    3    0    0 -0.46880576652E+01 -0.10052590594E+03  0.31135312431E+03  0.33673923762E+03  0.79530563196E+02 0.  0.
         -6    2    1    2    0  502 -0.30361732269E+02  0.96616319019E+02  0.71351598853E+03  0.74038971611E+03  0.16975075244E+03 0.  0.
        -24    2    5    5    0    0 -0.78723987933E+02  0.97287649934E+02  0.53607727570E+03  0.55641704079E+03  0.80985953387E+02 0.  0.
          5    1    3    3  501    0  0.35049789934E+02  0.39095869204E+01  0.40861280586E+03  0.41015885673E+03  0.47000000000E+01 0. -1.
        -13    1    4    4    0    0 -0.15159789348E+02 -0.13789677709E+02  0.96696346929E+01  0.22660014552E+02  0.00000000000E+00 0.  1.
         14    1    4    4    0    0  0.10471731683E+02 -0.86736228230E+02  0.30168348962E+03  0.31407922307E+03  0.00000000000E+00 0. -1.
         -5    1    5    5    0  502  0.48362255664E+02 -0.67133091532E+00  0.17743871283E+03  0.18397267533E+03  0.47000000000E+01 0.  1.
         13    1    6    6    0    0 -0.26509910457E+02  0.58144408646E+02  0.12703594853E+03  0.14220295295E+03  0.00000000000E+00 0. -1.
        -14    1    6    6    0    0 -0.52214077476E+02  0.39143241288E+02  0.40904132717E+03  0.41421408783E+03  0.00000000000E+00 0.  1.
</event>
<event>
12    1  0.8297444E-002  0.2294829E+03  0.7818608E-02  0.1127375E+00
         21   -1    0    0  503  502  0.00000000000E+00  0.00000000000E+00  0.49491071834E+03  0.49491071834E+03  0.00000000000E+00 0.  1.
         21   -1    0    0  501  503 -0.00000000000E+00 -0.00000000000E+00 -0.10549377605E+03  0.10549377605E+03  0.00000000000E+00 0.  1.
          6    2    1    2  501    0 -0.14265671463E+03 -0.61056742709E+02  0.20224581617E+03  0.30588519030E+03  0.16906660056E+03 0.  0.
         24    2    3    3    0    0 -0.55461070209E+02 -0.23823962539E+02  0.18428794581E+03  0.20927289587E+03  0.78673925003E+02 0.  0.
         -6    2    1    2    0  502  0.14265671463E+03  0.61056742709E+02  0.18717112611E+03  0.29451930409E+03  0.16622191785E+03 0.  0.
        -24    2    5    5    0    0  0.48840991463E+02 -0.29233302489E+02  0.88976996790E+02  0.13136949806E+03  0.78108966456E+02 0.  0.
          5    1    3    3  501    0 -0.87195644425E+02 -0.37232780170E+02  0.17957870356E+02  0.96612294423E+02  0.47000000000E+01 0. -1.
        -13    1    4    4    0    0 -0.58943466834E+02 -0.14978473259E+02  0.18908499175E+03  0.19862482485E+03  0.00000000000E+00 0.  1.
         14    1    4    4    0    0  0.34823966248E+01 -0.88454892798E+01 -0.47970459314E+01  0.10648071023E+02  0.00000000000E+00 0. -1.
         -5    1    5    5    0  502  0.93815723172E+02  0.90290045198E+02  0.98194129321E+02  0.16314980603E+03  0.47000000000E+01 0.  1.
         13    1    6    6    0    0  0.14589631119E+02  0.86008972690E+01 -0.10243595607E+02  0.19793029606E+02  0.00000000000E+00 0. -1.
        -14    1    6    6    0    0  0.34251360344E+02 -0.37834199758E+02  0.99220592397E+02  0.11157646845E+03  0.00000000000E+00 0.  1.
</event>
<event>
12    1  0.8297444E-002  0.2074210E+03  0.7818608E-02  0.1144136E+00
         21   -1    0    0  501  502  0.00000000000E+00  0.00000000000E+00  0.13669554315E+03  0.13669554315E+03  0.00000000000E+00 0. -1.
         21   -1    0    0  502  503 -0.00000000000E+00 -0.00000000000E+00 -0.70861754937E+03  0.70861754937E+03  0.00000000000E+00 0.  1.
         -6    2    1    2    0  503  0.72269701631E+02 -0.85079762484E+02 -0.60182505945E+03  0.63574763233E+03  0.17181435932E+03 0.  0.
        -24    2    3    3    0    0  0.31847024286E+02  0.17299859867E+02 -0.34538581350E+03  0.35664414475E+03  0.81179847910E+02 0.  0.
          6    2    1    2  501    0 -0.72269701631E+02  0.85079762484E+02  0.29903053228E+02  0.20956546020E+03  0.17481994668E+03 0.  0.
         24    2    5    5    0    0 -0.16997902683E+02  0.11886404756E+03  0.20975260842E+02  0.14400521955E+03  0.76680839808E+02 0.  0.
          5    1    5    5  501    0 -0.55271798948E+02 -0.33784285072E+02  0.89277923865E+01  0.65560240647E+02  0.47000000000E+01 0. -1.
        -13    1    6    6    0    0 -0.61481809894E+01  0.11873659483E+03 -0.16560887892E+01  0.11890719789E+03  0.00000000000E+00 0.  1.
         14    1    6    6    0    0 -0.10849721693E+02  0.12745272802E+00  0.22631349631E+02  0.25098021658E+02  0.00000000000E+00 0. -1.
         -5    1    3    3    0  503  0.40422677345E+02 -0.10237962235E+03 -0.25643924595E+03  0.27910348758E+03  0.47000000000E+01 0.  1.
         11    1    4    4    0    0  0.40684865978E+02  0.32386757052E+02 -0.32760553426E+03  0.33170701896E+03  0.00000000000E+00 0. -1.
        -12    1    4    4    0    0 -0.88378416929E+01 -0.15086897185E+02 -0.17780279245E+02  0.24937125786E+02  0.00000000000E+00 0.  1.
</event>
<event>
12    1  0.8297444E-002  0.2242022E+03  0.7818608E-02  0.1130887E+00
         21   -1    0    0  503  502  0.00000000000E+00  0.00000000000E+00  0.19225351515E+03  0.19225351515E+03  0.00000000000E+00 0. -1.
         21   -1    0    0  501  503 -0.00000000000E+00 -0.00000000000E+00 -0.33068726162E+03  0.33068726162E+03  0.00000000000E+00 0. -1.
          6    2    1    2  501    0  0.96134818403E+02 -0.10604549888E+03 -0.18946227130E+03  0.29353459364E+03  0.17256608668E+03 0.  0.
         24    2    3    3    0    0  0.10846367192E+03 -0.13590922777E+03 -0.16973633015E+03  0.25538953253E+03  0.78598379342E+02 0.  0.
         -6    2    1    2    0  502 -0.96134818403E+02  0.10604549888E+03  0.51028524830E+02  0.22940618314E+03  0.17185963858E+03 0.  0.
        -24    2    5    5    0    0 -0.67317386929E+02  0.57812484418E+02  0.99220155520E+02  0.15523481865E+03  0.79870493438E+02 0.  0.
          5    1    3    3  501    0 -0.12328853514E+02  0.29863728891E+02 -0.19725941155E+02  0.38145061105E+02  0.47000000000E+01 0. -1.
        -11    1    4    4    0    0  0.13073731262E+02 -0.67803177587E+01  0.72695836749E+01  0.16423824306E+02  0.00000000000E+00 0.  1.
         12    1    4    4    0    0  0.95389940654E+02 -0.12912891002E+03 -0.17700591382E+03  0.23896570823E+03  0.00000000000E+00 0. -1.
         -5    1    5    5    0  502 -0.28817431474E+02  0.48233014466E+02 -0.48191630690E+02  0.74171364487E+02  0.47000000000E+01 0.  1.
         11    1    6    6    0    0 -0.47867689642E+02  0.39156382771E+02  0.10774841812E+02  0.62774479204E+02  0.00000000000E+00 0. -1.
        -12    1    6    6    0    0 -0.19449697287E+02  0.18656101647E+02  0.88445313709E+02  0.92460339445E+02  0.00000000000E+00 0.  1.
</event>
<event>
12    1  0.8297444E-002  0.2363900E+03  0.7818608E-02  0.1122355E+00
         21   -1    0    0  501  502  0.00000000000E+00  0.00000000000E+00  0.11654702840E+03  0.11654702840E+03  0.00000000000E+00 0. -1.
         21   -1    0    0  502  503 -0.00000000000E+00 -0.00000000000E+00 -0.81720868384E+03  0.81720868384E+03  0.00000000000E+00 0. -1.
         -6    2    1    2    0  503 -0.11932824439E+03 -0.11103445287E+03 -0.65151993579E+03  0.69307896454E+03  0.17120848322E+03 0.  0.
        -24    2    3    3    0    0 -0.31567404856E+02 -0.26423988996E+01 -0.35833426961E+03  0.36837798337E+03  0.79343597952E+02 0.  0.
          6    2    1    2  501    0  0.11932824439E+03  0.11103445287E+03 -0.49141719652E+02  0.24067674769E+03  0.17012497947E+03 0.  0.
         24    2    5    5    0    0  0.12435570427E+03  0.12981536002E+03 -0.70172524973E+02  0.21165291958E+03  0.86927591836E+02 0.  0.
          5    1    5    5  501    0 -0.50274598869E+01 -0.18780907149E+02  0.21030805320E+02  0.29023828119E+02  0.47000000000E+01 0. -1.
        -11    1    6    6    0    0  0.43684486682E+02  0.10344868029E+03 -0.56434584183E+02  0.12567746864E+03  0.00000000000E+00 0.  1.
         12    1    6    6    0    0  0.80671217591E+02  0.26366679726E+02 -0.13737940790E+02  0.85975450941E+02  0.00000000000E+00 0. -1.
         -5    1    3    3    0  503 -0.87760839530E+02 -0.10839205397E+03 -0.29318566619E+03  0.32470098117E+03  0.47000000000E+01 0.  1.
         13    1    4    4    0    0 -0.54220498269E+02 -0.18667169450E+02 -0.22555164305E+03  0.23272702750E+03  0.00000000000E+00 0. -1.
        -14    1    4    4    0    0  0.22653093413E+02  0.16024770551E+02 -0.13278262655E+03  0.13565095587E+03  0.00000000000E+00 0.  1.
</event>
<event>
12    1  0.8297444E-002  0.1898307E+03  0.7818608E-02  0.1158763E+00
         21   -1    0    0  503  502  0.00000000000E+00  0.00000000000E+00  0.17220897516E+04  0.17220897516E+04  0.00000000000E+00 0.  1.
         21   -1    0    0  501  503 -0.00000000000E+00 -0.00000000000E+00 -0.33410963702E+02  0.33410963702E+02  0.00000000000E+00 0. -1.
          6    2    1    2  501    0  0.48493731645E+02  0.62660977867E+02  0.30712657264E+03  0.36105736264E+03  0.17250405019E+03 0.  0.
         24    2    3    3    0    0  0.64897969581E+02  0.26066256002E+02  0.30128017063E+03  0.32025855007E+03  0.83093931884E+02 0.  0.
         -6    2    1    2    0  502 -0.48493731645E+02 -0.62660977867E+02  0.13815522152E+04  0.13944433526E+04  0.17177805496E+03 0.  0.
        -24    2    5    5    0    0  0.17071433707E+02  0.19781303440E+02  0.65689860426E+03  0.66215893621E+03  0.79094542871E+02 0.  0.
          5    1    3    3  501    0 -0.16404237936E+02  0.36594721865E+02  0.58464020107E+01  0.40798812570E+02  0.47000000000E+01 0. -1.
        -13    1    4    4    0    0 -0.13349333380E+02 -0.13038533658E+02  0.83656612645E+02  0.85712524760E+02  0.00000000000E+00 0.  1.
         14    1    4    4    0    0  0.78247302961E+02  0.39104789660E+02  0.21762355799E+03  0.23454602531E+03  0.00000000000E+00 0. -1.
         -5    1    5    5    0  502 -0.65565165352E+02 -0.82442281307E+02  0.72465361095E+03  0.73228441641E+03  0.47000000000E+01 0.  1.
         11    1    6    6    0    0 -0.23622892320E+01  0.45048062041E+02  0.25185224674E+03  0.25586024016E+03  0.00000000000E+00 0. -1.
        -12    1    6    6    0    0  0.19433722939E+02 -0.25266758602E+02  0.40504635752E+03  0.40629869606E+03  0.00000000000E+00 0.  1.
</event>
<event>
12    1  0.8297444E-002  0.1850835E+03  0.7818608E-02  0.1163024E+00
         21   -1    0    0  501  502  0.00000000000E+00  0.00000000000E+00  0.25956049301E+03  0.25956049301E+03  0.00000000000E+00 0. -1.
         21   -1    0    0  502  503 -0.00000000000E+00 -0.00000000000E+00 -0.14367130634E+03  0.14367130634E+03  0.00000000000E+00 0.  1.
         -6    2    1    2    0  503 -0.65148666399E+02  0.14029551540E+02 -0.58118888138E-03  0.18485980337E+03  0.17242960839E+03 0.  0.
        -24    2    3    3    0    0 -0.10933937180E+03 -0.66720667902E+01 -0.68535797429E+01  0.13535799497E+03  0.79216163419E+02 0.  0.
          6    2    1    2  501    0  0.65148666399E+02 -0.14029551540E+02  0.11588976785E+03  0.21837199598E+03  0.17266937565E+03 0.  0.
         24    2    5    5    0    0  0.28176419843E+02 -0.62607499115E+02  0.11673016335E+03  0.15713834289E+03  0.79705195506E+02 0.  0.
          5    1    5    5  501    0  0.36972246556E+02  0.48577947576E+02 -0.84039549987E+00  0.61233653089E+02  0.47000000000E+01 0. -1.
        -13    1    6    6    0    0 -0.14346640810E+02 -0.14397250782E+02  0.81166489904E+02  0.83672612102E+02  0.00000000000E+00 0.  1.
         14    1    6    6    0    0  0.42523060652E+02 -0.48210248334E+02  0.35563673446E+02  0.73465730791E+02  0.00000000000E+00 0. -1.
         -5    1    3    3    0  503  0.44190705401E+02  0.20701618330E+02  0.68529985540E+01  0.49501808396E+02  0.47000000000E+01 0.  1.
         13    1    4    4    0    0 -0.77748671346E+02 -0.33487561745E+02 -0.27570724892E+02  0.89030430521E+02  0.00000000000E+00 0. -1.
        -14    1    4    4    0    0 -0.31590700454E+02  0.26815494955E+02  0.20717145149E+02  0.46327564451E+02  0.00000000000E+00 0.  1.
</event>
<event>
12    1  0.8297444E-002  0.1894031E+03  0.7818608E-02  0.1159616E+00
         21   -1    0    0  501  502  0.00000000000E+00  0.00000000000E+00  0.50580827758E+03  0.50580827758E+03  0.00000000000E+00 0. -1.
         21   -1    0    0  502  503 -0.00000000000E+00 -0.00000000000E+00 -0.22254002127E+03  0.22254002127E+03  0.00000000000E+00 0. -1.
         -6    2    1    2    0  503  0.51677505653E+02 -0.62886914241E+02 -0.16027067547E+03  0.24606173043E+03  0.16803082216E+03 0.  0.
        -24    2    3    3    0    0 -0.18291618210E+02 -0.74861355634E+02 -0.10434884606E+03  0.15557191584E+03  0.85878597211E+02 0.  0.
          6    2    1    2  501    0 -0.51677505653E+02  0.62886914241E+02  0.44353893178E+03  0.48228656841E+03  0.17102111418E+03 0.  0.
         24    2    5    5    0    0 -0.72555805312E+01  0.46043240060E+01  0.36804284185E+03  0.37696839643E+03  0.81091277082E+02 0.  0.
          5    1    5    5  501    0 -0.44421925122E+02  0.58282590235E+02  0.75496089926E+02  0.10531817198E+03  0.47000000000E+01 0. -1.
        -13    1    6    6    0    0 -0.20659122160E+02  0.43044153082E+01  0.21359494172E+02  0.30025910658E+02  0.00000000000E+00 0.  1.
         14    1    6    6    0    0  0.13403541629E+02  0.29990869777E+00  0.34668334768E+03  0.34694248577E+03  0.00000000000E+00 0. -1.
         -5    1    3    3    0  503  0.69969123863E+02  0.11974441394E+02 -0.55921829408E+02  0.90489814594E+02  0.47000000000E+01 0.  1.
         13    1    4    4    0    0 -0.32181397984E+01 -0.15387784103E+02 -0.91559217291E+02  0.92899034410E+02  0.00000000000E+00 0. -1.
        -14    1    4    4    0    0 -0.15073478412E+02 -0.59473571532E+02 -0.12789628768E+02  0.62672881426E+02  0.00000000000E+00 0.  1.
</event>
<event>
12    1  0.8297444E-002  0.3416980E+03  0.7818608E-02  0.1066390E+00
         21   -1    0    0  503  502  0.00000000000E+00  0.00000000000E+00  0.81470824083E+03  0.81470824083E+03  0.00000000000E+00 0. -1.
         21   -1    0    0  501  503 -0.00000000000E+00 -0.00000000000E+00 -0.34220882323E+03  0.34220882323E+03  0.00000000000E+00 0.  1.
          6    2    1    2  501    0 -0.29345049750E+03  0.29177226625E+02 -0.20569655577E+03  0.39883404131E+03  0.17260653063E+03 0.  0.
         24    2    3    3    0    0 -0.27324570530E+03 -0.23271703587E+02 -0.17184256505E+03  0.33305177473E+03  0.78669116154E+02 0.  0.
         -6    2    1    2    0  502  0.29345049750E+03 -0.29177226625E+02  0.67819597336E+03  0.75808302276E+03  0.16666009141E+03 0.  0.
        -24    2    5    5    0    0  0.18654760663E+03 -0.80382645502E+02  0.41673092110E+03  0.47096582273E+03  0.82962439316E+02 0.  0.
          5    1    3    3  501    0 -0.20204792195E+02  0.52448930212E+02 -0.33853990716E+02  0.65782266573E+02  0.47000000000E+01 0. -1.
        -11    1    4    4    0    0 -0.25074654074E+02  0.21597909955E+02 -0.19186555455E+02  0.38253521428E+02  0.00000000000E+00 0.  1.
         12    1    4    4    0    0 -0.24817105123E+03 -0.44869613543E+02 -0.15265600959E+03  0.29479825331E+03  0.00000000000E+00 0. -1.
         -5    1    5    5    0  502  0.10690289086E+03  0.51205418877E+02  0.26146505226E+03  0.28711720003E+03  0.47000000000E+01 0.  1.
         13    1    6    6    0    0  0.68254995589E+02 -0.17507069866E+02  0.70302607724E+02  0.99537422967E+02  0.00000000000E+00 0. -1.
        -14    1    6    6    0    0  0.11829261104E+03 -0.62875575636E+02  0.34642831338E+03  0.37142839976E+03  0.00000000000E+00 0.  1.
</event>
<event>
12    1  0.8297444E-002  0.1977764E+03  0.7818608E-02  0.1151715E+00
         21   -1    0    0  503  502  0.00000000000E+00  0.00000000000E+00  0.25726946743E+02  0.25726946743E+02  0.00000000000E+00 0. -1.
         21   -1    0    0  501  503 -0.00000000000E+00 -0.00000000000E+00 -0.30511101799E+04  0.30511101799E+04  0.00000000000E+00 0. -1.
          6    2    1    2  501    0 -0.92443521101E+02 -0.24584205248E+02 -0.26026845009E+04  0.26101576431E+04  0.17264449808E+03 0.  0.
         24    2    3    3    0    0  0.12524552237E+02 -0.33922941562E+02 -0.87579469382E+03  0.88004897475E+03  0.78499820736E+02 0.  0.
         -6    2    1    2    0  502  0.92443521101E+02  0.24584205248E+02 -0.42269873224E+03  0.46667948356E+03  0.17310498084E+03 0.  0.
        -24    2    5    5    0    0  0.96644972058E+02  0.27130242544E+02 -0.43466794774E+03  0.45291406981E+03  0.78221666770E+02 0.  0.
          5    1    3    3  501    0 -0.10496807334E+03  0.93387363143E+01 -0.17268898071E+04  0.17301086684E+04  0.47000000000E+01 0. -1.
        -13    1    4    4    0    0 -0.13202155664E+02 -0.49280580468E+02 -0.38873529605E+03  0.39206887522E+03  0.00000000000E+00 0.  1.
         14    1    4    4    0    0  0.25726707900E+02  0.15357638906E+02 -0.48705939777E+03  0.48798009952E+03  0.00000000000E+00 0. -1.
         -5    1    5    5    0  502 -0.42014509575E+01 -0.25460372969E+01  0.11969215498E+02  0.13765413750E+02  0.47000000000E+01 0.  1.
         13    1    6    6    0    0  0.20614156092E+02  0.89691821238E+01 -0.17510268748E+02  0.28495599152E+02  0.00000000000E+00 0. -1.
        -14    1    6    6    0    0  0.76030815966E+02  0.18161060421E+02 -0.41715767899E+03  0.42441847066E+03  0.00000000000E+00 0.  1.
</event>
<event>
12    1  0.8297444E-002  0.1819236E+03  0.7818608E-02  0.1166275E+00
         21   -1    0    0  501  502  0.00000000000E+00  0.00000000000E+00  0.29813322786E+02  0.29813322786E+02  0.00000000000E+00 0.  1.
         21   -1    0    0  502  503 -0.00000000000E+00 -0.00000000000E+00 -0.12288787964E+04  0.12288787964E+04  0.00000000000E+00 0.  1.
         -6    2    1    2    0  503  0.72462596552E+01  0.56522750052E+02 -0.79980291548E+03  0.81993617387E+03  0.17135721772E+03 0.  0.
        -24    2    3    3    0    0 -0.55839209230E+02  0.17458941339E+02 -0.56957224030E+03  0.57799814187E+03  0.79034695960E+02 0.  0.
          6    2    1    2  501    0 -0.72462596552E+01 -0.56522750052E+02 -0.39926255814E+03  0.43875594531E+03  0.17276822528E+03 0.  0.
         24    2    5    5    0    0 -0.61272149473E+02 -0.73087523979E+02 -0.26178392124E+03  0.29004261670E+03  0.80609153438E+02 0.  0.
          5    1    5    5  501    0  0.54025889818E+02  0.16564773927E+02 -0.13747863690E+03  0.14871332862E+03  0.47000000000E+01 0. -1.
        -13    1    6    6    0    0  0.12660570050E+01 -0.61150028043E+02 -0.13216235503E+03  0.14562903871E+03  0.00000000000E+00 0.  1.
         14    1    6    6    0    0 -0.62538206478E+02 -0.11937495936E+02 -0.12962156621E+03  0.14441357798E+03  0.00000000000E+00 0. -1.
         -5    1    3    3    0  503  0.63085468885E+02  0.39063808713E+02 -0.23023067518E+03  0.24193803200E+03  0.47000000000E+01 0.  1.
         13    1    4    4    0    0  0.12141420647E+02 -0.17823532403E+02 -0.11140846897E+03  0.11347660270E+03  0.00000000000E+00 0. -1.
        -14    1    4    4    0    0 -0.67980629877E+02  0.35282473742E+02 -0.45816377133E+03  0.46452153917E+03  0.00000000000E+00 0.  1.
</event>
<event>
12    1  0.8297444E-002  0.1911811E+03  0.7818608E-02  0.1158028E+00
         21   -1    0    0  501  502  0.00000000000E+00  0.00000000000E+00  0.39805245882E+03  0.39805245882E+03  0.00000000000E+00 0. -1.
         21   -1    0    0  502  503 -0.00000000000E+00 -0.00000000000E+00 -0.19996726304E+03  0.19996726304E+03  0.00000000000E+00 0. -1.
         -6    2    1    2    0  503 -0.56749360182E+02 -0.52782069005E+02 -0.12252533326E+03  0.22473521385E+03  0.17171785686E+03 0.  0.
        -24    2    3    3    0    0 -0.98266999966E+02 -0.77372933753E+01 -0.85398991272E+02  0.15294941098E+03  0.79901599587E+02 0.  0.
          6    2    1    2  501    0  0.56749360182E+02  0.52782069005E+02  0.32061052905E+03  0.37328450800E+03  0.17476777704E+03 0.  0.
         24    2    5    5    0    0 -0.29984279633E+01 -0.33793449484E+02  0.16755245734E+03  0.18750511758E+03  0.77028276379E+02 0.  0.
          5    1    5    5  501    0  0.59747788145E+02  0.86575518489E+02  0.15305807171E+03  0.18577939042E+03  0.47000000000E+01 0. -1.
        -13    1    6    6    0    0 -0.38522772956E+01 -0.23046253305E+02  0.17358532825E+03  0.17515089499E+03  0.00000000000E+00 0.  1.
         14    1    6    6    0    0  0.85384933227E+00 -0.10747196180E+02 -0.60328709146E+01  0.12354222593E+02  0.00000000000E+00 0. -1.
         -5    1    3    3    0  503  0.41517639784E+02 -0.45044775629E+02 -0.37126341990E+02  0.71785802875E+02  0.47000000000E+01 0.  1.
         13    1    4    4    0    0 -0.38605102398E+02 -0.30027288786E+02 -0.73303188015E+02  0.88121219784E+02  0.00000000000E+00 0. -1.
        -14    1    4    4    0    0 -0.59661897568E+02  0.22289995411E+02 -0.12095803257E+02  0.64828191192E+02  0.00000000000E+00 0.  1.
</event>
<event>
12    1  0.8297444E-002  0.1969924E+03  0.7818608E-02  0.1152662E+00
         21   -1    0    0  503  502  0.00000000000E+00  0.00000000000E+00  0.40225863727E+02  0.40225863727E+02  0.00000000000E+00 0.  1.
         21   -1    0    0  501  503 -0.00000000000E+00 -0.00000000000E+00 -0.11217275166E+04  0.11217275166E+04  0.00000000000E+00 0. -1.
          6    2    1    2  501    0  0.89095122994E+02 -0.36082933326E+02 -0.76172501163E+03  0.78636968729E+03  0.17003638648E+03 0.  0.
         24    2    3    3    0    0  0.39392513033E+02 -0.22532244553E+02 -0.17938775891E+03  0.20173926000E+03  0.80369701087E+02 0.  0.
         -6    2    1    2    0  502 -0.89095122994E+02  0.36082933326E+02 -0.31977664120E+03  0.37558369300E+03  0.17194793156E+03 0.  0.
        -24    2    5    5    0    0 -0.12316233364E+03  0.38000160655E+02 -0.30053946265E+03  0.33613233509E+03  0.77768923405E+02 0.  0.
          5    1    3    3  501    0  0.49702609961E+02 -0.13550688773E+02 -0.58233725272E+03  0.58463042729E+03  0.47000000000E+01 0. -1.
        -13    1    4    4    0    0  0.20828753453E+02  0.25214742542E+02 -0.11442687430E+03  0.11900894829E+03  0.00000000000E+00 0.  1.
         14    1    4    4    0    0  0.18563759580E+02 -0.47746987095E+02 -0.64960884606E+02  0.82730311708E+02  0.00000000000E+00 0. -1.
         -5    1    5    5    0  502  0.34067210644E+02 -0.19172273287E+01 -0.19237178551E+02  0.39451357902E+02  0.47000000000E+01 0.  1.
         11    1    6    6    0    0 -0.15678845441E+02  0.16760960063E+02 -0.13938352588E+03  0.14126048019E+03  0.00000000000E+00 0. -1.
        -12    1    6    6    0    0 -0.10748348820E+03  0.21239200592E+02 -0.16115593677E+03  0.19487185490E+03  0.00000000000E+00 0.  1.
</event>
<event>
12    1  0.8297444E-002  0.2033670E+03  0.7818608E-02  0.1147081E+00
         21   -1    0    0  501  502  0.00000000000E+00  0.00000000000E+00  0.26643421144E+03  0.26643421144E+03  0.00000000000E+00 0. -1.
         21   -1    0    0  502  503 -0.00000000000E+00 -0.00000000000E+00 -0.18547678697E+03  0.18547678697E+03  0.00000000000E+00 0. -1.
         -6    2    1    2    0  503  0.10530577712E+03 -0.24242611202E+02 -0.51553496953E+02  0.20979971293E+03  0.17228216857E+03 0.  0.
        -24    2    3    3    0    0  0.57845308830E+02 -0.66033983534E+02 -0.75533074824E+02  0.14200498595E+03  0.82180313380E+02 0.  0.
          6    2    1    2  501    0 -0.10530577712E+03  0.24242611202E+02  0.13251092142E+03  0.24211128547E+03  0.17141096629E+03 0.  0.
         24    2    5    5    0    0 -0.71864746378E+02  0.86154537733E+02  0.84591745213E+02  0.15684859356E+03  0.69703456148E+02 0.  0.
          5    1    5    5  501    0 -0.33441030745E+02 -0.61911926530E+02  0.47919176211E+02  0.85262691916E+02  0.47000000000E+01 0. -1.
        -11    1    6    6    0    0 -0.56722180569E+02  0.75613292504E+02  0.29918072102E+02  0.99145684778E+02  0.00000000000E+00 0.  1.
         12    1    6    6    0    0 -0.15142565809E+02  0.10541245229E+02  0.54673673110E+02  0.57702908779E+02  0.00000000000E+00 0. -1.
         -5    1    3    3    0  503  0.47460468293E+02  0.41791372331E+02  0.23979577872E+02  0.67794726984E+02  0.47000000000E+01 0.  1.
         13    1    4    4    0    0  0.59009183925E+02 -0.15014606442E+02 -0.66524485398E+02  0.90183309718E+02  0.00000000000E+00 0. -1.
        -14    1    4    4    0    0 -0.11638750951E+01 -0.51019377092E+02 -0.90085894259E+01  0.51821676232E+02  0.00000000000E+00 0.  1.
</event>
<event>
12    1  0.8297444E-002  0.1895026E+03  0.7818608E-02  0.1159209E+00
         21   -1    0    0  503  502  0.00000000000E+00  0.00000000000E+00  0.97389259264E+03  0.97389259264E+03  0.00000000000E+00 0.  1.
         21   -1    0    0  501  503 -0.00000000000E+00 -0.00000000000E+00 -0.62055208164E+02  0.62055208164E+02  0.00000000000E+00 0.  1.
          6    2    1    2  501    0  0.72292182625E+02 -0.35355475703E+02  0.12523046304E+03  0.22714289851E+03  0.17156648315E+03 0.  0.
         24    2    3    3    0    0  0.11048085591E+03 -0.44748707920E+02  0.12081852423E+03  0.18729113842E+03  0.79198411284E+02 0.  0.
         -6    2    1    2    0  502 -0.72292182625E+02  0.35355475703E+02  0.78660692143E+03  0.80880490229E+03  0.17011393768E+03 0.  0.
        -24    2    5    5    0    0  0.27695454772E+02  0.12684360457E+02  0.32047251836E+03  0.33150533301E+03  0.79153140056E+02 0.  0.
          5    1    3    3  501    0 -0.38188673283E+02  0.93932322162E+01  0.44119388109E+01  0.39851760095E+02  0.47000000000E+01 0. -1.
        -11    1    4    4    0    0  0.21733040020E+02 -0.39790687509E+02  0.74112646912E+02  0.86881000646E+02  0.00000000000E+00 0.  1.
         12    1    4    4    0    0  0.88747815889E+02 -0.49580204108E+01  0.46705877321E+02  0.10041013777E+03  0.00000000000E+00 0. -1.
         -5    1    5    5    0  502 -0.99987637397E+02  0.22671115246E+02  0.46613440307E+03  0.47729956927E+03  0.47000000000E+01 0.  1.
         13    1    6    6    0    0 -0.27599164951E+02  0.76498572826E+00  0.86870202249E+02  0.91152241596E+02  0.00000000000E+00 0. -1.
        -14    1    6    6    0    0  0.55294619723E+02  0.11919374729E+02  0.23360231611E+03  0.24035309142E+03  0.00000000000E+00 0.  1.
</event>
<event>
12    1  0.8297444E-002  0.1772565E+03  0.7818608E-02  0.1170915E+00
         21   -1    0    0  503  502  0.00000000000E+00  0.00000000000E+00  0.42850089983E+03  0.42850089983E+03  0.00000000000E+00 0. -1.
         21   -1    0    0  501  503 -0.00000000000E+00 -0.00000000000E+00 -0.97427982847E+02  0.97427982847E+02  0.00000000000E+00 0. -1.
          6    2    1    2  501    0  0.60881674632E+01 -0.43163139795E+02  0.32211001512E+02  0.17845469704E+03  0.17002472720E+03 0.  0.
         24    2    3    3    0    0 -0.47936891066E+02  0.15070162504E+02  0.30608997303E+02  0.98865245082E+02  0.79450428861E+02 0.  0.
         -6    2    1    2    0  502 -0.60881674632E+01  0.43163139795E+02  0.29886191547E+03  0.34747418563E+03  0.17181310411E+03 0.  0.
        -24    2    5    5    0    0 -0.33911167407E+01 -0.43620231745E+02  0.16836742217E+03  0.19066369351E+03  0.78043775440E+02 0.  0.
          5    1    3    3  501    0  0.54025058530E+02 -0.58233302299E+02  0.16020042094E+01  0.79589451960E+02  0.47000000000E+01 0. -1.
        -11    1    4    4    0    0 -0.64863226789E+02 -0.37837552361E+01  0.33950211910E+02  0.73308743557E+02  0.00000000000E+00 0.  1.
         12    1    4    4    0    0  0.16926335723E+02  0.18853917740E+02 -0.33412146072E+01  0.25556501525E+02  0.00000000000E+00 0. -1.
         -5    1    5    5    0  502 -0.26970507225E+01  0.86783371540E+02  0.13049449330E+03  0.15681049212E+03  0.47000000000E+01 0.  1.
         11    1    6    6    0    0 -0.20791599107E+02  0.16660587803E+02  0.54067866459E+02  0.60276031412E+02  0.00000000000E+00 0. -1.
        -12    1    6    6    0    0  0.17400482367E+02 -0.60280819548E+02  0.11429955571E+03  0.13038766210E+03  0.00000000000E+00 0.  1.
</event>
<event>
12    1  0.8297444E-002  0.2345094E+03  0.7818608E-02  0.1123714E+00
         21   -1    0    0  501  502  0.00000000000E+00  0.00000000000E+00  0.70218349598E+03  0.70218349598E+03  0.00000000000E+00 0.  1.
         21   -1    0    0  502  503 -0.00000000000E+00 -0.00000000000E+00 -0.77932994392E+02  0.77932994392E+02  0.00000000000E+00 0. -1.
         -6    2    1    2    0  503  0.15585722108E+03 -0.28293128482E+02  0.31706896451E+03  0.39365151492E+03  0.17127992428E+03 0.  0.
        -24    2    3    3    0    0  0.14677136439E+03  0.84049420693E+00  0.15400065772E+03  0.22768560444E+03  0.81129477111E+02 0.  0.
          6    2    1    2  501    0 -0.15585722108E+03  0.28293128482E+02  0.30718153708E+03  0.38646497545E+03  0.17292398921E+03 0.  0.
         24    2    5    5    0    0 -0.49647362145E+02 -0.42459555844E+02  0.17374644768E+03  0.20176660090E+03  0.79083871366E+02 0.  0.
          5    1    5    5  501    0 -0.10620985894E+03  0.70752684326E+02  0.13343508941E+03  0.18469837455E+03  0.47000000000E+01 0. -1.
        -11    1    6    6    0    0  0.15465096530E+02 -0.24898691313E+02  0.87532087149E+02  0.92309156212E+02  0.00000000000E+00 0.  1.
         12    1    6    6    0    0 -0.65112458675E+02 -0.17560864531E+02  0.86214360527E+02  0.10945744469E+03  0.00000000000E+00 0. -1.
         -5    1    3    3    0  503  0.90858566975E+01 -0.29133622689E+02  0.16306830679E+03  0.16596591049E+03  0.47000000000E+01 0.  1.
         11    1    4    4    0    0  0.10076399048E+03 -0.27382746979E+01  0.47124662932E+02  0.11127270008E+03  0.00000000000E+00 0. -1.
        -12    1    4    4    0    0  0.46007373907E+02  0.35787689049E+01  0.10687599478E+03  0.11641290436E+03  0.00000000000E+00 0.  1.
</event>
<event>
12    1  0.8297444E-002  0.2377376E+03  0.7818608E-02  0.1121686E+00
         21   -1    0    0  501  502  0.00000000000E+00  0.00000000000E+00  0.86140189193E+02  0.86140189193E+02  0.00000000000E+00 0. -1.
         21   -1    0    0  502  503 -0.00000000000E+00 -0.00000000000E+00 -0.75429883336E+03  0.75429883336E+03  0.00000000000E+00 0. -1.
         -6    2    1    2    0  503  0.42485386715E+02 -0.15510640572E+03 -0.48897727567E+03  0.54273931106E+03  0.17205864833E+03 0.  0.
        -24    2    3    3    0    0 -0.25228631772E+02 -0.13888540132E+03 -0.38091815340E+03  0.41410349493E+03  0.80358113265E+02 0.  0.
          6    2    1    2  501    0 -0.42485386715E+02  0.15510640572E+03 -0.17918136849E+03  0.29769971149E+03  0.17508897803E+03 0.  0.
         24    2    5    5    0    0 -0.88938373316E+02  0.69718756546E+02 -0.96044304726E+02  0.16970443046E+03  0.82488459704E+02 0.  0.
          5    1    5    5  501    0  0.46452986601E+02  0.85387649174E+02 -0.83137063766E+02  0.12799528103E+03  0.47000000000E+01 0. -1.
        -11    1    6    6    0    0 -0.16334234312E+02 -0.15766084340E+02 -0.10518707898E+01  0.22726263620E+02  0.00000000000E+00 0.  1.
         12    1    6    6    0    0 -0.72604139004E+02  0.85484840886E+02 -0.94992433937E+02  0.14697816684E+03  0.00000000000E+00 0. -1.
         -5    1    3    3    0  503  0.67714018486E+02 -0.16221004402E+02 -0.10805912228E+03  0.12863581613E+03  0.47000000000E+01 0.  1.
         11    1    4    4    0    0  0.20279715144E+02 -0.51776961399E+02 -0.20698736926E+03  0.21432660034E+03  0.00000000000E+00 0. -1.
        -12    1    4    4    0    0 -0.45508346916E+02 -0.87108439919E+02 -0.17393078413E+03  0.19977689459E+03  0.00000000000E+00 0.  1.
</event>
<event>
12    1  0.8297444E-002  0.2795027E+03  0.7818608E-02  0.1096366E+00
         21   -1    0    0  503  502  0.00000000000E+00  0.00000000000E+00  0.57782491682E+02  0.57782491682E+02  0.00000000000E+00 0.  1.
         21   -1    0    0  501  503 -0.00000000000E+00 -0.00000000000E+00 -0.16552865354E+04  0.16552865354E+04  0.00000000000E+00 0.  1.
          6    2    1    2  501    0 -0.15395797972E+03  0.15393338866E+03 -0.11772829730E+04  0.12100069998E+04  0.17528032774E+03 0.  0.
         24    2    3    3    0    0 -0.11962797197E+03  0.33796925377E+02 -0.81256372399E+03  0.82445085619E+03  0.63295536143E+02 0.  0.
         -6    2    1    2    0  502  0.15395797972E+03 -0.15393338866E+03 -0.42022107071E+03  0.50306202731E+03  0.17054942800E+03 0.  0.
        -24    2    5    5    0    0  0.13508412171E+01 -0.49991700671E+02 -0.16200272063E+03  0.18558506824E+03  0.75471459196E+02 0.  0.
          5    1    3    3  501    0 -0.34330007749E+02  0.12013646329E+03 -0.36471924904E+03  0.38555614360E+03  0.47000000000E+01 0. -1.
        -11    1    4    4    0    0 -0.11160520711E+03  0.48575780944E+02 -0.67783070632E+03  0.68867248760E+03  0.00000000000E+00 0.  1.
         12    1    4    4    0    0 -0.80227648594E+01 -0.14778855567E+02 -0.13473301766E+03  0.13577836859E+03  0.00000000000E+00 0. -1.
         -5    1    5    5    0  502  0.15260713850E+03 -0.10394168799E+03 -0.25821835008E+03  0.31747695907E+03  0.47000000000E+01 0.  1.
         13    1    6    6    0    0 -0.36845382257E+02 -0.25778178098E+02 -0.72681894812E+02  0.85467856491E+02  0.00000000000E+00 0. -1.
        -14    1    6    6    0    0  0.38196223474E+02 -0.24213522573E+02 -0.89320825819E+02  0.10011721175E+03  0.00000000000E+00 0.  1.
</event>
<event>
12    1  0.8297444E-002  0.2137982E+03  0.7818608E-02  0.1141776E+00
         21   -1    0    0  503  502  0.00000000000E+00  0.00000000000E+00  0.25526290917E+03  0.25526290917E+03  0.00000000000E+00 0.  1.
         21   -1    0    0  501  503 -0.00000000000E+00 -0.00000000000E+00 -0.39236468406E+03  0.39236468406E+03  0.00000000000E+00 0.  1.
          6    2    1    2  501    0  0.10891197506E+03 -0.60061276523E+02 -0.31326975039E+03  0.37059900706E+03  0.15406658390E+03 0.  0.
         24    2    3    3    0    0  0.12254222561E+03 -0.83893556058E+02 -0.28395045399E+03  0.33015803256E+03  0.79509372606E+02 0.  0.
         -6    2    1    2    0  502 -0.10891197506E+03  0.60061276523E+02  0.17616797550E+03  0.27702858618E+03  0.17389797789E+03 0.  0.
        -24    2    5    5    0    0 -0.55754073926E+02  0.43895986857E+02  0.19234959043E+03  0.21896815469E+03  0.76898071544E+02 0.  0.
          5    1    3    3  501    0 -0.13630250544E+02  0.23832279535E+02 -0.29319296399E+02  0.40440974507E+02  0.47000000000E+01 0. -1.
        -13    1    4    4    0    0  0.66556676012E+02 -0.24124688552E+02 -0.63919214187E+02  0.95380593737E+02  0.00000000000E+00 0.  1.
         14    1    4    4    0    0  0.55985549596E+02 -0.59768867507E+02 -0.22003123981E+03  0.23477743882E+03  0.00000000000E+00 0. -1.
         -5    1    5    5    0  502 -0.53157901137E+02  0.16165289667E+02 -0.16181614924E+02  0.58060431491E+02  0.47000000000E+01 0.  1.
         13    1    6    6    0    0 -0.14228062397E+02 -0.17548359042E+02  0.88623544961E+02  0.91457724585E+02  0.00000000000E+00 0. -1.
        -14    1    6    6    0    0 -0.41526011529E+02  0.61444345899E+02  0.10372604547E+03  0.12751043010E+03  0.00000000000E+00 0.  1.
</event>
<event>
12    1  0.8297444E-002  0.2446951E+03  0.7818608E-02  0.1117404E+00
         21   -1    0    0  501  502  0.00000000000E+00  0.00000000000E+00  0.62936677242E+03  0.62936677242E+03  0.00000000000E+00 0.  1.
         21   -1    0    0  502  503 -0.00000000000E+00 -0.00000000000E+00 -0.12647519391E+03  0.12647519391E+03  0.00000000000E+00 0.  1.
         -6    2    1    2    0  503 -0.12769069900E+03 -0.11199633492E+03  0.60069960667E+02  0.25196047598E+03  0.17614649482E+03 0.  0.
        -24    2    3    3    0    0 -0.91040678793E+02 -0.28820010235E+02  0.92873220640E+02  0.15521509453E+03  0.79669895642E+02 0.  0.
          6    2    1    2  501    0  0.12769069900E+03  0.11199633492E+03  0.44282161784E+03  0.50388149035E+03  0.17016896734E+03 0.  0.
         24    2    5    5    0    0  0.79085011392E+02  0.14504492503E+03  0.35736320322E+03  0.40005493881E+03  0.71014264402E+02 0.  0.
          5    1    5    5  501    0  0.48605687603E+02 -0.33048590107E+02  0.85458414626E+02  0.10382655155E+03  0.47000000000E+01 0. -1.
        -13    1    6    6    0    0  0.20376330595E+02  0.13405922452E+02  0.15117815645E+02  0.28696026819E+02  0.00000000000E+00 0.  1.
         14    1    6    6    0    0  0.58708680797E+02  0.13163900257E+03  0.34224538757E+03  0.37135891199E+03  0.00000000000E+00 0. -1.
         -5    1    3    3    0  503 -0.36650020202E+02 -0.83176324684E+02 -0.32803259973E+02  0.96745381459E+02  0.47000000000E+01 0.  1.
         11    1    4    4    0    0  0.35593621324E+01  0.10165930204E+02  0.37205983623E+02  0.38733711584E+02  0.00000000000E+00 0. -1.
        -12    1    4    4    0    0 -0.94600040925E+02 -0.38985940439E+02  0.55667237017E+02  0.11648138294E+03  0.00000000000E+00 0.  1.
</event>
<event>
12    1  0.8297444E-002  0.3259260E+03  0.7818608E-02  0.1073040E+00
         21   -1    0    0  503  502  0.00000000000E+00  0.00000000000E+00  0.84570983285E+03  0.84570983285E+03  0.00000000000E+00 0. -1.
         21   -1    0    0  501  503 -0.00000000000E+00 -0.00000000000E+00 -0.12725215835E+03  0.12725215835E+03  0.00000000000E+00 0.  1.
          6    2    1    2  501    0 -0.14838775488E+03  0.23304896251E+03  0.41886275720E+03  0.53026019450E+03  0.17146171518E+03 0.  0.
         24    2    3    3    0    0 -0.65647475575E+02  0.15842902494E+03  0.35250324061E+03  0.40049207690E+03  0.82012328504E+02 0.  0.
         -6    2    1    2    0  502  0.14838775488E+03 -0.23304896251E+03  0.29959491730E+03  0.44270179671E+03  0.17290755222E+03 0.  0.
        -24    2    5    5    0    0  0.12313992712E+03 -0.25241278637E+03  0.28095382738E+03  0.40552666101E+03  0.81493332867E+02 0.  0.
          5    1    3    3  501    0 -0.82740279302E+02  0.74619937572E+02  0.66359516586E+02  0.12976811759E+03  0.47000000000E+01 0. -1.
        -13    1    4    4    0    0 -0.61409159987E+02  0.65870122734E+02  0.11867791370E+03  0.14897786815E+03  0.00000000000E+00 0.  1.
         14    1    4    4    0    0 -0.42383155874E+01  0.92558902205E+02  0.23382532692E+03  0.25151420875E+03  0.00000000000E+00 0. -1.
         -5    1    5    5    0  502  0.25247827754E+02  0.19363823855E+02  0.18641089924E+02  0.37175135698E+02  0.47000000000E+01 0.  1.
         13    1    6    6    0    0  0.18183475835E+02 -0.11149889348E+03  0.79094037600E+02  0.13790760974E+03  0.00000000000E+00 0. -1.
        -14    1    6    6    0    0  0.10495645129E+03 -0.14091389289E+03  0.20185978978E+03  0.26761905127E+03  0.00000000000E+00 0.  1.
</event>
<event>
12    1  0.8297444E-002  0.1765617E+03  0.7818608E-02  0.1174295E+00
         21   -1    0    0  501  502  0.00000000000E+00  0.00000000000E+00  0.16833881606E+04  0.16833881606E+04  0.00000000000E+00 0.  1.
         21   -1    0    0  502  503 -0.00000000000E+00 -0.00000000000E+00 -0.17787466553E+02  0.17787466553E+02  0.00000000000E+00 0.  1.
         -6    2    1    2    0  503  0.42077568833E+02 -0.94761964767E+01  0.71651842328E+03  0.73795168490E+03  0.17121249446E+03 0.  0.
        -24    2    3    3    0    0  0.64416668735E+02 -0.16385663174E+02  0.70334395268E+03  0.71070406501E+03  0.77392215887E+02 0.  0.
          6    2    1    2  501    0 -0.42077568833E+02  0.94761964767E+01  0.94908227074E+03  0.96322394221E+03  0.15869116589E+03 0.  0.
         24    2    5    5    0    0  0.24148752114E+02  0.31601312922E+02  0.63075403367E+03  0.63729388396E+03  0.81920927284E+02 0.  0.
          5    1    5    5  501    0 -0.66226320947E+02 -0.22125116446E+02  0.31832823706E+03  0.32593005826E+03  0.47000000000E+01 0. -1.
        -11    1    6    6    0    0 -0.14265117288E+02  0.28864556203E+02  0.98080829807E+02  0.10323035092E+03  0.00000000000E+00 0.  1.
         12    1    6    6    0    0  0.38413869402E+02  0.27367567190E+01  0.53267320386E+03  0.53406353303E+03  0.00000000000E+00 0. -1.
         -5    1    3    3    0  503 -0.22339099902E+02  0.69094666975E+01  0.13174470596E+02  0.27247619895E+02  0.47000000000E+01 0.  1.
         11    1    4    4    0    0 -0.10715450725E+02  0.16703945343E+02  0.12638420915E+03  0.12793283784E+03  0.00000000000E+00 0. -1.
        -12    1    4    4    0    0  0.75132119460E+02 -0.33089608517E+02  0.57695974353E+03  0.58277122717E+03  0.00000000000E+00 0.  1.
</event>
<event>
12    1  0.8297444E-002  0.1976427E+03  0.7818608E-02  0.1151770E+00
         21   -1    0    0  503  502  0.00000000000E+00  0.00000000000E+00  0.17696224438E+02  0.17696224438E+02  0.00000000000E+00 0. -1.
         21   -1    0    0  501  503 -0.00000000000E+00 -0.00000000000E+00 -0.22488113873E+04  0.22488113873E+04  0.00000000000E+00 0.  1.
          6    2    1    2  501    0  0.89589484787E+02  0.37798810974E+02 -0.12715911129E+04  0.12868397913E+04  0.17192342494E+03 0.  0.
         24    2    3    3    0    0  0.11773496464E+03  0.16714818063E+02 -0.11734025395E+04  0.11824377379E+04  0.84525601524E+02 0.  0.
         -6    2    1    2    0  502 -0.89589484787E+02 -0.37798810974E+02 -0.95952404992E+03  0.97966782045E+03  0.17206862046E+03 0.  0.
        -24    2    5    5    0    0 -0.98967642068E+02 -0.31683145125E+02 -0.46328185892E+03  0.48327709397E+03  0.90156823868E+02 0.  0.
          5    1    3    3  501    0 -0.28145479848E+02  0.21083992911E+02 -0.98188573388E+02  0.10440205332E+03  0.47000000000E+01 0. -1.
        -11    1    4    4    0    0  0.65513445618E+02  0.51251522482E+02 -0.64687640995E+03  0.65220228447E+03  0.00000000000E+00 0.  1.
         12    1    4    4    0    0  0.52221519017E+02 -0.34536704420E+02 -0.52652612958E+03  0.53023545348E+03  0.00000000000E+00 0. -1.
         -5    1    5    5    0  502  0.93781572818E+01 -0.61156658489E+01 -0.49624219100E+03  0.49639072648E+03  0.47000000000E+01 0.  1.
         11    1    6    6    0    0 -0.12542208961E+02 -0.48005861936E+02 -0.16539752530E+03  0.17267950417E+03  0.00000000000E+00 0. -1.
        -12    1    6    6    0    0 -0.86425433107E+02  0.16322716811E+02 -0.29788433362E+03  0.31059758980E+03  0.00000000000E+00 0.  1.
</event>
<event>
12    1  0.8297444E-002  0.1850755E+03  0.7818608E-02  0.1164202E+00
         21   -1    0    0  503  502  0.00000000000E+00  0.00000000000E+00  0.11571643573E+03  0.11571643573E+03  0.00000000000E+00 0. -1.
         21   -1    0    0  501  503 -0.00000000000E+00 -0.00000000000E+00 -0.29909566259E+03  0.29909566259E+03  0.00000000000E+00 0. -1.
          6    2    1    2  501    0  0.63308046862E+02 -0.27616333633E+02 -0.13072797804E+03  0.22239301900E+03  0.16612730052E+03 0.  0.
         24    2    3    3    0    0  0.11811002442E+02  0.99841342159E+01 -0.46040400472E+01  0.80989063959E+02  0.79365285745E+02 0.  0.
         -6    2    1    2    0  502 -0.63308046862E+02  0.27616333633E+02 -0.52651248813E+02  0.19241907932E+03  0.17170433135E+03 0.  0.
        -24    2    5    5    0    0 -0.22948362499E+02  0.79995431872E+02 -0.14220870920E+02  0.11579363968E+03  0.79246686743E+02 0.  0.
          5    1    3    3  501    0  0.51497044420E+02 -0.37600467849E+02 -0.12612393800E+03  0.14140395504E+03  0.47000000000E+01 0. -1.
        -11    1    4    4    0    0 -0.19421900894E+02 -0.10776565045E+02 -0.28790811060E+02  0.36362829785E+02  0.00000000000E+00 0.  1.
         12    1    4    4    0    0  0.31232903335E+02  0.20760699260E+02  0.24186771012E+02  0.44626234174E+02  0.00000000000E+00 0. -1.
         -5    1    5    5    0  502 -0.40359684363E+02 -0.52379098239E+02 -0.38430377893E+02  0.76625439635E+02  0.47000000000E+01 0.  1.
         11    1    6    6    0    0 -0.64874990932E+01  0.81326036991E+01  0.28671233743E+02  0.30500271011E+02  0.00000000000E+00 0. -1.
        -12    1    6    6    0    0 -0.16460863405E+02  0.71862828173E+02 -0.42892104663E+02  0.85293368672E+02  0.00000000000E+00 0.  1.
</event>
<event>
12    1  0.8297444E-002  0.2096282E+03  0.7818608E-02  0.1142341E+00
         21   -1    0    0  501  502  0.00000000000E+00  0.00000000000E+00  0.53551512156E+03  0.53551512156E+03  0.00000000000E+00 0. -1.
         21   -1    0    0  502  503 -0.00000000000E+00 -0.00000000000E+00 -0.81777905357E+02  0.81777905357E+02  0.00000000000E+00 0. -1.
         -6    2    1    2    0  503  0.11319318285E+03  0.21870158966E+02  0.19790656017E+03  0.28654645855E+03  0.17219426778E+03 0.  0.
        -24    2    3    3    0    0  0.47438372883E+02 -0.42333973025E+02  0.56308638738E+02  0.11767394169E+03  0.81448936538E+02 0.  0.
          6    2    1    2  501    0 -0.11319318285E+03 -0.21870158966E+02  0.25583065604E+03  0.33074656836E+03  0.17507988868E+03 0.  0.
         24    2    5    5    0    0 -0.41232183080E+02 -0.76172516705E+02  0.13086440079E+03  0.17658500865E+03  0.80959426028E+02 0.  0.
          5    1    5    5  501    0 -0.71960999766E+02  0.54302357739E+02  0.12496625525E+03  0.15416155972E+03  0.47000000000E+01 0. -1.
        -11    1    6    6    0    0 -0.46461601062E+02 -0.16629138967E+02  0.94529701007E+02  0.10663523343E+03  0.00000000000E+00 0.  1.
         12    1    6    6    0    0  0.52294179822E+01 -0.59543377738E+02  0.36334699781E+02  0.69949775218E+02  0.00000000000E+00 0. -1.
         -5    1    3    3    0  503  0.65754809964E+02  0.64204131991E+02  0.14159792143E+03  0.16887251686E+03  0.47000000000E+01 0.  1.
         13    1    4    4    0    0 -0.21832779566E+02 -0.18781051011E+02  0.76254092228E+01  0.29791693582E+02  0.00000000000E+00 0. -1.
        -14    1    4    4    0    0  0.69271152449E+02 -0.23552922013E+02  0.48683229515E+02  0.87882248110E+02  0.00000000000E+00 0.  1.
</event>
<event>
12    1  0.8297444E-002  0.3278775E+03  0.7818608E-02  0.1072123E+00
         21   -1    0    0  501  502  0.00000000000E+00  0.00000000000E+00  0.11353071643E+04  0.11353071643E+04  0.00000000000E+00 0. -1.
         21   -1    0    0  502  503 -0.00000000000E+00 -0.00000000000E+00 -0.14133407492E+03  0.14133407492E+03  0.00000000000E+00 0.  1.
         -6    2    1    2    0  503  0.10834296974E+03  0.25751125626E+03  0.12965272112E+03  0.35222069525E+03  0.17087815506E+03 0.  0.
        -24    2    3    3    0    0  0.13385758805E+03  0.20137743886E+03  0.65619360216E+02  0.26320180674E+03  0.80613670530E+02 0.  0.
          6    2    1    2  501    0 -0.10834296974E+03 -0.25751125626E+03  0.86432036823E+03  0.92442054393E+03  0.17161991994E+03 0.  0.
         24    2    5    5    0    0  0.16279762377E+01 -0.99878302172E+02  0.44188824338E+03  0.46029475573E+03  0.81410791435E+02 0.  0.
          5    1    5    5  501    0 -0.10997094598E+03 -0.15763295409E+03  0.42243212485E+03  0.46412578821E+03  0.47000000000E+01 0. -1.
        -13    1    6    6    0    0 -0.27106411753E+02 -0.10700135624E+02  0.55230217269E+02  0.62446996406E+02  0.00000000000E+00 0.  1.
         14    1    6    6    0    0  0.28734387991E+02 -0.89178166548E+02  0.38665802611E+03  0.39784775932E+03  0.00000000000E+00 0. -1.
         -5    1    3    3    0  503 -0.25514618309E+02  0.56133817405E+02  0.64033360902E+02  0.89018888515E+02  0.47000000000E+01 0.  1.
         11    1    4    4    0    0  0.18512048506E+02  0.70623289159E+01  0.27722299625E+02  0.34074892900E+02  0.00000000000E+00 0. -1.
        -12    1    4    4    0    0  0.11534553954E+03  0.19431510994E+03  0.37897060591E+02  0.22912691384E+03  0.00000000000E+00 0.  1.
</event>
<event>
12    1  0.8297444E-002  0.2780843E+03  0.7818608E-02  0.1096812E+00
         21   -1    0    0  501  502  0.00000000000E+00  0.00000000000E+00  0.81640720580E+03  0.81640720580E+03  0.00000000000E+00 0. -1.
         21   -1    0    0  502  503 -0.00000000000E+00 -0.00000000000E+00 -0.10700264043E+03  0.10700264043E+03  0.00000000000E+00 0.  1.
         -6    2    1    2    0  503  0.10475113756E+03 -0.19132343228E+03  0.51195459260E+03  0.58235653456E+03  0.17165130907E+03 0.  0.
        -24    2    3    3    0    0  0.10185120375E+03 -0.16888847281E+03  0.51692491413E+03  0.55872327160E+03  0.77867473475E+02 0.  0.
          6    2    1    2  501    0 -0.10475113756E+03  0.19132343228E+03  0.19744997276E+03  0.34105331167E+03  0.17249177689E+03 0.  0.
         24    2    5    5    0    0 -0.77255906780E+02  0.55125571440E+02  0.37116365660E+02  0.12883926741E+03  0.78832914879E+02 0.  0.
          5    1    5    5  501    0 -0.27495230781E+02  0.13619786084E+03  0.16033360710E+03  0.21221404426E+03  0.47000000000E+01 0. -1.
        -13    1    6    6    0    0 -0.99540786873E+00  0.46632743611E+02  0.14377346293E+02  0.48808930535E+02  0.00000000000E+00 0.  1.
         14    1    6    6    0    0 -0.76260498912E+02  0.84928278288E+01  0.22739019366E+02  0.80030336876E+02  0.00000000000E+00 0. -1.
         -5    1    3    3    0  503  0.28999338124E+01 -0.22434959469E+02 -0.49703215246E+01  0.23633262969E+02  0.47000000000E+01 0.  1.
         13    1    4    4    0    0  0.78260854766E+02 -0.57115616236E+02  0.26327309486E+03  0.28053462796E+03  0.00000000000E+00 0. -1.
        -14    1    4    4    0    0  0.23590348983E+02 -0.11177285657E+03  0.25365181927E+03  0.27818864364E+03  0.00000000000E+00 0.  1.
</event>
<event>
12    1  0.8297444E-002  0.1854248E+03  0.7818608E-02  0.1162743E+00
         21   -1    0    0  501  502  0.00000000000E+00  0.00000000000E+00  0.11815367725E+03  0.11815367725E+03  0.00000000000E+00 0.  1.
         21   -1    0    0  502  503 -0.00000000000E+00 -0.00000000000E+00 -0.44882201822E+03  0.44882201822E+03  0.00000000000E+00 0. -1.
         -6    2    1    2    0  503 -0.61002698542E+02 -0.38705255821E+02 -0.33387014379E+03  0.38190525606E+03  0.17077155978E+03 0.  0.
        -24    2    3    3    0    0 -0.35472866856E+01 -0.58148676235E+02 -0.11540267037E+03  0.15512497055E+03  0.85744553003E+02 0.  0.
          6    2    1    2  501    0  0.61002698542E+02  0.38705255821E+02  0.32018028266E+01  0.18507043941E+03  0.17035665512E+03 0.  0.
         24    2    5    5    0    0 -0.35110307219E+02  0.24507521179E+02 -0.10719358530E+01  0.87706994585E+02  0.76537674287E+02 0.  0.
          5    1    5    5  501    0  0.96113005761E+02  0.14197734643E+02  0.42737386796E+01  0.97363444822E+02  0.47000000000E+01 0. -1.
        -13    1    6    6    0    0  0.16172762717E+02  0.15172824651E+02  0.21515290059E+02  0.30897905562E+02  0.00000000000E+00 0.  1.
         14    1    6    6    0    0 -0.51283069936E+02  0.93346965277E+01 -0.22587225912E+02  0.56809089023E+02  0.00000000000E+00 0. -1.
         -5    1    3    3    0  503 -0.57455411856E+02  0.19443420414E+02 -0.21846747342E+03  0.22678028550E+03  0.47000000000E+01 0.  1.
         13    1    4    4    0    0 -0.30397831500E+02 -0.30035221323E+01 -0.76804896698E+02  0.82656164089E+02  0.00000000000E+00 0. -1.
        -14    1    4    4    0    0  0.26850544814E+02 -0.55145154103E+02 -0.38597773672E+02  0.72468806464E+02  0.00000000000E+00 0.  1.
</event>
<event>
12    1  0.8297444E-002  0.1960773E+03  0.7818608E-02  0.1154180E+00
         21   -1    0    0  503  502  0.00000000000E+00  0.00000000000E+00  0.48962196833E+02  0.48962196833E+02  0.00000000000E+00 0. -1.
         21   -1    0    0  501  503 -0.00000000000E+00 -0.00000000000E+00 -0.82839601450E+03  0.82839601450E+03  0.00000000000E+00 0.  1.
          6    2    1    2  501    0 -0.16280954855E+02 -0.92729692849E+02 -0.51520719170E+03  0.55125742048E+03  0.17199542969E+03 0.  0.
         24    2    3    3    0    0 -0.60894746442E+02 -0.61724042032E+02 -0.45534123678E+03  0.47027740233E+03  0.79417666297E+02 0.  0.
         -6    2    1    2    0  502  0.16280954855E+02  0.92729692849E+02 -0.26422662597E+03  0.32610079085E+03  0.16631942308E+03 0.  0.
        -24    2    5    5    0    0  0.36234521680E+02  0.40139069716E+02 -0.24994863838E+03  0.26787820589E+03  0.79751651266E+02 0.  0.
          5    1    3    3  501    0  0.44613791587E+02 -0.31005650817E+02 -0.59865954919E+02  0.80980018157E+02  0.47000000000E+01 0. -1.
        -13    1    4    4    0    0 -0.19954173617E+02 -0.44414842468E+01 -0.28803299758E+03  0.28875751683E+03  0.00000000000E+00 0.  1.
         14    1    4    4    0    0 -0.40940572826E+02 -0.57282557785E+02 -0.16730823919E+03  0.18151988550E+03  0.00000000000E+00 0. -1.
         -5    1    5    5    0  502 -0.19953566824E+02  0.52590623133E+02 -0.14277987590E+02  0.58222584966E+02  0.47000000000E+01 0.  1.
         13    1    6    6    0    0  0.15436367239E+02  0.27036810801E+02 -0.20862041813E+02  0.37476597503E+02  0.00000000000E+00 0. -1.
        -14    1    6    6    0    0  0.20798154440E+02  0.13102258915E+02 -0.22908659657E+03  0.23040160838E+03  0.00000000000E+00 0.  1.
</event>
<event>
12    1  0.8297444E-002  0.2105562E+03  0.7818608E-02  0.1141419E+00
         21   -1    0    0  501  502  0.00000000000E+00  0.00000000000E+00  0.15083511029E+03  0.15083511029E+03  0.00000000000E+00 0.  1.
         21   -1    0    0  502  503 -0.00000000000E+00 -0.00000000000E+00 -0.29211945915E+03  0.29211945915E+03  0.00000000000E+00 0. -1.
         -6    2    1    2    0  503  0.41158438783E+02 -0.11573443145E+03 -0.63841484684E+02  0.21860814997E+03  0.16919016626E+03 0.  0.
        -24    2    3    3    0    0 -0.12992216758E+02  0.13488087520E+01 -0.27162397617E+02  0.84413425558E+02  0.78849309374E+02 0.  0.
          6    2    1    2  501    0 -0.41158438783E+02  0.11573443145E+03 -0.77442864179E+02  0.22434641948E+03  0.17101299078E+03 0.  0.
         24    2    5    5    0    0  0.20520333573E+02  0.64891696819E+02 -0.95896347901E+02  0.14217662159E+03  0.79912863664E+02 0.  0.
          5    1    5    5  501    0 -0.61678772356E+02  0.50842734631E+02  0.18453483722E+02  0.82169797892E+02  0.47000000000E+01 0. -1.
        -13    1    6    6    0    0  0.32346653546E+02  0.14550495753E+02 -0.26703492050E+01  0.35568998962E+02  0.00000000000E+00 0.  1.
         14    1    6    6    0    0 -0.11826319972E+02  0.50341201065E+02 -0.93225998696E+02  0.10660762262E+03  0.00000000000E+00 0. -1.
         -5    1    3    3    0  503  0.54150655541E+02 -0.11708324020E+03 -0.36679087068E+02  0.13419472441E+03  0.47000000000E+01 0.  1.
         13    1    4    4    0    0 -0.11715089234E+01 -0.34459487010E+02 -0.31185530409E+02  0.46490493491E+02  0.00000000000E+00 0. -1.
        -14    1    4    4    0    0 -0.11820707834E+02  0.35808295762E+02  0.40231327927E+01  0.37922932067E+02  0.00000000000E+00 0.  1.
</event>
<event>
12    1  0.8297444E-002  0.2044660E+03  0.7818608E-02  0.1147013E+00
         21   -1    0    0  501  502  0.00000000000E+00  0.00000000000E+00  0.31125331549E+02  0.31125331549E+02  0.00000000000E+00 0. -1.
         21   -1    0    0  502  503 -0.00000000000E+00 -0.00000000000E+00 -0.14287009353E+04  0.14287009353E+04  0.00000000000E+00 0.  1.
         -6    2    1    2    0  503  0.97976082723E+02  0.49859272891E+02 -0.48268535008E+03  0.52236665108E+03  0.16672285715E+03 0.  0.
        -24    2    3    3    0    0  0.30282128430E+02  0.85294857848E+02 -0.33025773208E+03  0.35179578352E+03  0.80609451229E+02 0.  0.
          6    2    1    2  501    0 -0.97976082723E+02 -0.49859272891E+02 -0.91489025364E+03  0.93745961574E+03  0.17239807152E+03 0.  0.
         24    2    5    5    0    0  0.24974859054E+01 -0.18238969125E+02 -0.59422358819E+03  0.59990372121E+03  0.80273934304E+02 0.  0.
          5    1    5    5  501    0 -0.10047356863E+03 -0.31620303766E+02 -0.32066666545E+03  0.33755589453E+03  0.47000000000E+01 0. -1.
        -13    1    6    6    0    0  0.25221578030E+02 -0.39481874803E+02 -0.44582373972E+03  0.44827865590E+03  0.00000000000E+00 0.  1.
         14    1    6    6    0    0 -0.22724092125E+02  0.21242905678E+02 -0.14839984847E+03  0.15162506531E+03  0.00000000000E+00 0. -1.
         -5    1    3    3    0  503  0.67693954293E+02 -0.35435584958E+02 -0.15242761801E+03  0.17057086756E+03  0.47000000000E+01 0.  1.
         13    1    4    4    0    0  0.45011080966E+02  0.42033117130E+02 -0.10315483037E+03  0.12014033200E+03  0.00000000000E+00 0. -1.
        -14    1    4    4    0    0 -0.14728952536E+02  0.43261740718E+02 -0.22710290171E+03  0.23165545151E+03  0.00000000000E+00 0.  1.
</event>
<event>
12    1  0.8297444E-002  0.1922147E+03  0.7818608E-02  0.1156797E+00
         21   -1    0    0  503  502  0.00000000000E+00  0.00000000000E+00  0.72294092255E+03  0.72294092255E+03  0.00000000000E+00 0.  1.
         21   -1    0    0  501  503 -0.00000000000E+00 -0.00000000000E+00 -0.53282268169E+02  0.53282268169E+02  0.00000000000E+00 0. -1.
          6    2    1    2  501    0  0.77610605163E+02 -0.32356535810E+02  0.42101654430E+03  0.46281900348E+03  0.17284718095E+03 0.  0.
         24    2    3    3    0    0 -0.23454874013E+02 -0.37825795594E+02  0.15873791872E+03  0.18164946153E+03  0.76275016273E+02 0.  0.
         -6    2    1    2    0  502 -0.77610605163E+02  0.32356535810E+02  0.24864211008E+03  0.31340418724E+03  0.17125692462E+03 0.  0.
        -24    2    5    5    0    0  0.98577882691E+01  0.29588903756E+01  0.16664528798E+03  0.18987074949E+03  0.90411937733E+02 0.  0.
          5    1    3    3  501    0  0.10106547918E+03  0.54692597838E+01  0.26227862558E+03  0.28116954195E+03  0.47000000000E+01 0. -1.
        -13    1    4    4    0    0 -0.64061415338E+01 -0.59570076643E+02  0.11924335443E+03  0.13344890504E+03  0.00000000000E+00 0.  1.
         14    1    4    4    0    0 -0.17048732479E+02  0.21744281050E+02  0.39494564289E+02  0.48200556490E+02  0.00000000000E+00 0. -1.
         -5    1    5    5    0  502 -0.87468393433E+02  0.29397645434E+02  0.81996822095E+02  0.12353343774E+03  0.47000000000E+01 0.  1.
         13    1    6    6    0    0  0.45781293836E+02  0.15821662192E+02  0.12126138133E+03  0.13057784828E+03  0.00000000000E+00 0. -1.
        -14    1    6    6    0    0 -0.35923505567E+02 -0.12862771817E+02  0.45383906651E+02  0.59292901211E+02  0.00000000000E+00 0.  1.
</event>
<event>
12    1  0.8297444E-002  0.2002945E+03  0.7818608E-02  0.1149625E+00
         21   -1    0    0  503  502  0.00000000000E+00  0.00000000000E+00  0.56642607364E+03  0.56642607364E+03  0.00000000000E+00 0.  1.
         21   -1    0    0  501  503 -0.00000000000E+00 -0.00000000000E+00 -0.17678513772E+03  0.17678513772E+03  0.00000000000E+00 0. -1.
          6    2    1    2  501    0  0.35026887422E+01 -0.10240160257E+03 -0.93300112770E+02  0.22038240931E+03  0.17136259292E+03 0.  0.
         24    2    3    3    0    0 -0.31401951734E+02 -0.86592352079E+02 -0.28388084318E+01  0.12202792842E+03  0.79990239843E+02 0.  0.
         -6    2    1    2    0  502 -0.35026887422E+01  0.10240160257E+03  0.48294104869E+03  0.52282880206E+03  0.17210329082E+03 0.  0.
        -24    2    5    5    0    0 -0.46089134335E+02  0.88009690435E+02  0.20363189695E+03  0.23988636139E+03  0.78801034333E+02 0.  0.
          5    1    3    3  501    0  0.34904640476E+02 -0.15809250490E+02 -0.90461304338E+02  0.98354480886E+02  0.47000000000E+01 0. -1.
        -11    1    4    4    0    0 -0.48563234288E+02 -0.65615757504E+02 -0.26731737181E+02  0.85897620049E+02  0.00000000000E+00 0.  1.
         12    1    4    4    0    0  0.17161282554E+02 -0.20976594575E+02  0.23892928749E+02  0.36130308372E+02  0.00000000000E+00 0. -1.
         -5    1    5    5    0  502  0.42586445592E+02  0.14391912134E+02  0.27930915174E+03  0.28294244066E+03  0.47000000000E+01 0.  1.
         11    1    6    6    0    0 -0.54073187244E+02  0.59128985741E+02  0.19144961305E+03  0.20754060053E+03  0.00000000000E+00 0. -1.
        -12    1    6    6    0    0  0.79840529097E+01  0.28880704694E+02  0.12182283904E+02  0.32345760860E+02  0.00000000000E+00 0.  1.
</event>
<event>
12    1  0.8297444E-002  0.1888372E+03  0.7818608E-02  0.1159645E+00
         21   -1    0    0  503  502  0.00000000000E+00  0.00000000000E+00  0.24415462145E+03  0.24415462145E+03  0.00000000000E+00 0.  1.
         21   -1    0    0  501  503 -0.00000000000E+00 -0.00000000000E+00 -0.14561921528E+03  0.14561921528E+03  0.00000000000E+00 0.  1.
          6    2    1    2  501    0  0.69084202474E+02 -0.33627228124E+02  0.47664171078E+02  0.19420447467E+03  0.17187229932E+03 0.  0.
         24    2    3    3    0    0  0.20771021456E+02  0.44481623037E+02  0.35830846899E+02  0.10148299037E+03  0.81270521253E+02 0.  0.
         -6    2    1    2    0  502 -0.69084202474E+02  0.33627228124E+02  0.50871235097E+02  0.19556936206E+03  0.17249949366E+03 0.  0.
        -24    2    5    5    0    0 -0.62636951488E+02  0.30327649366E+02 -0.31744661537E+02  0.11250354092E+03  0.82499510148E+02 0.  0.
          5    1    3    3  501    0  0.48313181017E+02 -0.78108851161E+02  0.11833324179E+02  0.92721484300E+02  0.47000000000E+01 0. -1.
        -13    1    4    4    0    0  0.45470477719E+02  0.30652996280E+02 -0.12260442272E+01  0.54851378372E+02  0.00000000000E+00 0.  1.
         14    1    4    4    0    0 -0.24699456263E+02  0.13828626757E+02  0.37056891126E+02  0.46631611998E+02  0.00000000000E+00 0. -1.
         -5    1    5    5    0  502 -0.64472509858E+01  0.32995787586E+01  0.82615896634E+02  0.83065821141E+02  0.47000000000E+01 0.  1.
         11    1    6    6    0    0 -0.10776864035E+02  0.44868846756E+02  0.62842903372E+01  0.46570876228E+02  0.00000000000E+00 0. -1.
        -12    1    6    6    0    0 -0.51860087452E+02 -0.14541197390E+02 -0.38028951874E+02  0.65932664687E+02  0.00000000000E+00 0.  1.
</event>
<event>
12    1  0.8297444E-002  0.2902549E+03  0.7818608E-02  0.1090274E+00
         21   -1    0    0  503  502  0.00000000000E+00  0.00000000000E+00  0.65703689143E+03  0.65703689143E+03  0.00000000000E+00 0. -1.
         21   -1    0    0  501  503 -0.00000000000E+00 -0.00000000000E+00 -0.23452534681E+03  0.23452534681E+03  0.00000000000E+00 0.  1.
          6    2    1    2  501    0 -0.95243629435E+02  0.21307602205E+03 -0.89052724437E+02  0.30360874406E+03  0.17255474964E+03 0.  0.
         24    2    3    3    0    0 -0.12850513931E+03  0.13651866881E+03 -0.82639818782E+02  0.21976023941E+03  0.79462603872E+02 0.  0.
         -6    2    1    2    0  502  0.95243629435E+02 -0.21307602205E+03  0.51156426905E+03  0.58795349417E+03  0.17180969070E+03 0.  0.
        -24    2    5    5    0    0  0.69366120205E+01 -0.69984881164E+02  0.11153892166E+03  0.15400007215E+03  0.79555584346E+02 0.  0.
          5    1    3    3  501    0  0.33261509873E+02  0.76557353241E+02 -0.64129056549E+01  0.83848504657E+02  0.47000000000E+01 0. -1.
        -11    1    4    4    0    0 -0.41548687190E+02  0.41744624151E+02 -0.68537773104E+02  0.90367767455E+02  0.00000000000E+00 0.  1.
         12    1    4    4    0    0 -0.86956452118E+02  0.94774044654E+02 -0.14102045678E+02  0.12939247195E+03  0.00000000000E+00 0. -1.
         -5    1    5    5    0  502  0.88307017415E+02 -0.14309114088E+03  0.40002534739E+03  0.43395342202E+03  0.47000000000E+01 0.  1.
         11    1    6    6    0    0 -0.34532786702E+01 -0.76895909238E+02  0.11726453798E+03  0.14027073059E+03  0.00000000000E+00 0. -1.
        -12    1    6    6    0    0  0.10389890691E+02  0.69110280732E+01 -0.57256163234E+01  0.13729341567E+02  0.00000000000E+00 0.  1.
</event>
<event>
12    1  0.8297444E-002  0.1770597E+03  0.7818608E-02  0.1171453E+00
         21   -1    0    0  503  502  0.00000000000E+00  0.00000000000E+00  0.10097993539E+03  0.10097993539E+03  0.00000000000E+00 0.  1.
         21   -1    0    0  501  503 -0.00000000000E+00 -0.00000000000E+00 -0.35688847970E+03  0.35688847970E+03  0.00000000000E+00 0.  1.
          6    2    1    2  501    0 -0.22166288028E+02  0.77119043924E+01 -0.21616804791E+03  0.27942580319E+03  0.17549739814E+03 0.  0.
         24    2    3    3    0    0 -0.64096418660E+02 -0.41359443013E+02 -0.16055136902E+03  0.19409446098E+03  0.77954879769E+02 0.  0.
         -6    2    1    2    0  502  0.22166288028E+02 -0.77119043924E+01 -0.39740496404E+02  0.17844261191E+03  0.17237064975E+03 0.  0.
        -24    2    5    5    0    0  0.37964282517E+02 -0.63584792535E+02 -0.57776229813E+02  0.11746118901E+03  0.70531734723E+02 0.  0.
          5    1    3    3  501    0  0.41930130632E+02  0.49071347406E+02 -0.55616678894E+02  0.85331342203E+02  0.47000000000E+01 0. -1.
        -11    1    4    4    0    0 -0.80543155604E+02 -0.27856465062E+02 -0.14318108384E+03  0.16662534420E+03  0.00000000000E+00 0.  1.
         12    1    4    4    0    0  0.16446736944E+02 -0.13502977951E+02 -0.17370285175E+02  0.27469116781E+02  0.00000000000E+00 0. -1.
         -5    1    5    5    0  502 -0.15797994489E+02  0.55872888142E+02  0.18035733409E+02  0.60981422899E+02  0.47000000000E+01 0.  1.
         13    1    6    6    0    0  0.19927484125E+02 -0.63317685881E+02 -0.10944787668E+02  0.67275718844E+02  0.00000000000E+00 0. -1.
        -14    1    6    6    0    0  0.18036798392E+02 -0.26710665392E+00 -0.46831442145E+02  0.50185470164E+02  0.00000000000E+00 0.  1.
</event>
<event>
12    1  0.8297444E-002  0.1986340E+03  0.7818608E-02  0.1151048E+00
         21   -1    0    0  503  502  0.00000000000E+00  0.00000000000E+00  0.11670089760E+04  0.11670089760E+04  0.00000000000E+00 0.  1.
         21   -1    0    0  501  503 -0.00000000000E+00 -0.00000000000E+00 -0.62609660824E+02  0.62609660824E+02  0.00000000000E+00 0.  1.
          6    2    1    2  501    0  0.25945510741E+01 -0.99022083606E+02  0.13487396170E+03  0.24009674655E+03  0.17217246419E+03 0.  0.
         24    2    3    3    0    0  0.39310986022E+02 -0.22096239531E+02  0.12118199919E+03  0.15363726518E+03  0.82980328394E+02 0.  0.
         -6    2    1    2    0  502 -0.25945510741E+01  0.99022083606E+02  0.96952535344E+03  0.98952189024E+03  0.17135359802E+03 0.  0.
        -24    2    5    5    0    0 -0.55153529472E+02  0.39195545439E+02  0.37340291030E+03  0.38808551115E+03  0.81255325630E+02 0.  0.
          5    1    3    3  501    0 -0.36716434948E+02 -0.76925844075E+02  0.13691962507E+02  0.86459481373E+02  0.47000000000E+01 0. -1.
        -11    1    4    4    0    0 -0.10799710284E+02 -0.31028260249E+01 -0.79915620772E+01  0.13788630679E+02  0.00000000000E+00 0.  1.
         12    1    4    4    0    0  0.50110696306E+02 -0.18993413506E+02  0.12917356127E+03  0.13984863450E+03  0.00000000000E+00 0. -1.
         -5    1    5    5    0  502  0.52558978398E+02  0.59826538167E+02  0.59612244314E+03  0.60143637909E+03  0.47000000000E+01 0.  1.
         13    1    6    6    0    0 -0.12586537131E+02 -0.25405753391E+02  0.96730239756E+02  0.10079986362E+03  0.00000000000E+00 0. -1.
        -14    1    6    6    0    0 -0.42566992341E+02  0.64601298830E+02  0.27667267055E+03  0.28728564753E+03  0.00000000000E+00 0.  1.
</event>
<event>
12    1  0.8297444E-002  0.2434002E+03  0.7818608E-02  0.1117728E+00
         21   -1    0    0  501  502  0.00000000000E+00  0.00000000000E+00  0.62100654765E+03  0.62100654765E+03  0.00000000000E+00 0.  1.
         21   -1    0    0  502  503 -0.00000000000E+00 -0.00000000000E+00 -0.17586138783E+03  0.17586138783E+03  0.00000000000E+00 0. -1.
         -6    2    1    2    0  503 -0.62392189681E+02  0.15963432410E+03 -0.47919028342E+02  0.24699889564E+03  0.17127848203E+03 0.  0.
        -24    2    3    3    0    0 -0.18591225587E+02  0.14134462680E+03  0.18820002746E+02  0.16496703748E+03  0.80845493109E+02 0.  0.
          6    2    1    2  501    0  0.62392189681E+02 -0.15963432410E+03  0.49306418816E+03  0.54986903985E+03  0.17282292838E+03 0.  0.
         24    2    5    5    0    0  0.89026802757E+02 -0.50908699642E+02  0.28864136005E+03  0.31675652049E+03  0.80643606287E+02 0.  0.
          5    1    5    5  501    0 -0.26634613076E+02 -0.10872562445E+03  0.20442282812E+03  0.23311251936E+03  0.47000000000E+01 0. -1.
        -13    1    6    6    0    0  0.66536519030E+02 -0.61283448089E+02  0.14432689993E+03  0.17033209744E+03  0.00000000000E+00 0.  1.
         14    1    6    6    0    0  0.22490283727E+02  0.10374748447E+02  0.14431446011E+03  0.14642442305E+03  0.00000000000E+00 0. -1.
         -5    1    3    3    0  503 -0.43800964094E+02  0.18289697294E+02 -0.66739031088E+02  0.82031858161E+02  0.47000000000E+01 0.  1.
         13    1    4    4    0    0  0.15367109661E+02  0.13651064972E+02 -0.18512554191E+02  0.27662507060E+02  0.00000000000E+00 0. -1.
        -14    1    4    4    0    0 -0.33958335248E+02  0.12769356183E+03  0.37332556937E+02  0.13730453042E+03  0.00000000000E+00 0.  1.
</event>
<event>
12    1  0.8297444E-002  0.2794983E+03  0.7818608E-02  0.1096032E+00
         21   -1    0    0  501  502  0.00000000000E+00  0.00000000000E+00  0.34306851870E+03  0.34306851870E+03  0.00000000000E+00 0. -1.
         21   -1    0    0  502  503 -0.00000000000E+00 -0.00000000000E+00 -0.31926593777E+03  0.31926593777E+03  0.00000000000E+00 0.  1.
         -6    2    1    2    0  503 -0.11149278933E+03  0.18976084782E+03 -0.16583249001E+03  0.32499189745E+03  0.17227738456E+03 0.  0.
        -24    2    3    3    0    0 -0.13116865079E+03  0.19253999254E+03 -0.11826449742E+03  0.27322639651E+03  0.79933151569E+02 0.  0.
          6    2    1    2  501    0  0.11149278933E+03 -0.18976084782E+03  0.18963507094E+03  0.33734255902E+03  0.17146055103E+03 0.  0.
         24    2    5    5    0    0  0.58010658640E+02 -0.79046256388E+02  0.20381496118E+02  0.12808931138E+03  0.79861875392E+02 0.  0.
          5    1    5    5  501    0  0.53482130688E+02 -0.11071459143E+03  0.16925357482E+03  0.20925324764E+03  0.47000000000E+01 0. -1.
        -13    1    6    6    0    0  0.59955849998E+02 -0.16230313712E+02  0.30565528942E+00  0.62114575241E+02  0.00000000000E+00 0.  1.
         14    1    6    6    0    0 -0.19451913584E+01 -0.62815942675E+02  0.20075840828E+02  0.65974736139E+02  0.00000000000E+00 0. -1.
         -5    1    3    3    0  503  0.19675861461E+02 -0.27791447175E+01 -0.47567992588E+02  0.51765500948E+02  0.47000000000E+01 0.  1.
         11    1    4    4    0    0 -0.67918805136E+02  0.14964090254E+03 -0.52832143212E+02  0.17261691447E+03  0.00000000000E+00 0. -1.
        -12    1    4    4    0    0 -0.63249845654E+02  0.42899089996E+02 -0.65432354212E+02  0.10060948204E+03  0.00000000000E+00 0.  1.
</event>
<event>
12    1  0.8297444E-002  0.2487840E+03  0.7818608E-02  0.1114337E+00
         21   -1    0    0  503  502  0.00000000000E+00  0.00000000000E+00  0.83599704079E+03  0.83599704079E+03  0.00000000000E+00 0. -1.
         21   -1    0    0  501  503 -0.00000000000E+00 -0.00000000000E+00 -0.83680700143E+02  0.83680700143E+02  0.00000000000E+00 0. -1.
          6    2    1    2  501    0 -0.10982036666E+03  0.13996846992E+03  0.21506416210E+03  0.32761914026E+03  0.17155180482E+03 0.  0.
         24    2    3    3    0    0 -0.79641694676E+01  0.85919564724E+02  0.53791716976E+02  0.12930912887E+03  0.79885558126E+02 0.  0.
         -6    2    1    2    0  502  0.10982036666E+03 -0.13996846992E+03  0.53725217855E+03  0.59205860068E+03  0.17390168998E+03 0.  0.
        -24    2    5    5    0    0  0.12792322999E+03 -0.94536945884E+02  0.49834131944E+03  0.52938578366E+03  0.81262847404E+02 0.  0.
          5    1    3    3  501    0 -0.10185619719E+03  0.54048905193E+02  0.16127244512E+03  0.19831001138E+03  0.47000000000E+01 0. -1.
        -11    1    4    4    0    0 -0.15815495676E+02  0.54607426537E+02  0.72395978476E+02  0.92050413557E+02  0.00000000000E+00 0.  1.
         12    1    4    4    0    0  0.78513262084E+01  0.31312138187E+02 -0.18604261500E+02  0.37258715317E+02  0.00000000000E+00 0. -1.
         -5    1    5    5    0  502 -0.18102863333E+02 -0.45431524034E+02  0.38910859108E+02  0.62672817022E+02  0.47000000000E+01 0.  1.
         13    1    6    6    0    0  0.82535129391E+02 -0.77396345485E+02  0.43570689622E+03  0.45015857349E+03  0.00000000000E+00 0. -1.
        -14    1    6    6    0    0  0.45388100598E+02 -0.17140600399E+02  0.62634423229E+02  0.79227210169E+02  0.00000000000E+00 0.  1.
</event>
<event>
12    1  0.8297444E-002  0.1744700E+03  0.7818608E-02  0.1173541E+00
         21   -1    0    0  503  502  0.00000000000E+00  0.00000000000E+00  0.18323334307E+03  0.18323334307E+03  0.00000000000E+00 0. -1.
         21   -1    0    0  501  503 -0.00000000000E+00 -0.00000000000E+00 -0.24755218477E+03  0.24755218477E+03  0.00000000000E+00 0. -1.
          6    2    1    2  501    0  0.61147696767E+01 -0.15746480071E+02 -0.15654308949E+03  0.23440462703E+03  0.17365036212E+03 0.  0.
         24    2    3    3    0    0 -0.43281147386E+02  0.38886829868E+02 -0.88267438529E+02  0.13386403975E+03  0.82115754742E+02 0.  0.
         -6    2    1    2    0  502 -0.61147696767E+01  0.15746480071E+02  0.92224247788E+02  0.19638090081E+03  0.17255377214E+03 0.  0.
        -24    2    5    5    0    0 -0.57603796944E+02  0.47383888627E+02  0.43045082132E+02  0.11832498570E+03  0.81144887828E+02 0.  0.
          5    1    3    3  501    0  0.49395917063E+02 -0.54633309939E+02 -0.68275650961E+02  0.10054058728E+03  0.47000000000E+01 0. -1.
        -11    1    4    4    0    0 -0.15348039709E+02 -0.23217589177E+02 -0.87546525807E+01  0.29176406769E+02  0.00000000000E+00 0.  1.
         12    1    4    4    0    0 -0.27933107677E+02  0.62104419045E+02 -0.79512785949E+02  0.10468763298E+03  0.00000000000E+00 0. -1.
         -5    1    5    5    0  502  0.51489027267E+02 -0.31637408556E+02  0.49179165657E+02  0.78055915111E+02  0.47000000000E+01 0.  1.
         11    1    6    6    0    0 -0.42222795485E+01  0.19309631750E+00  0.46786333188E+02  0.46976865625E+02  0.00000000000E+00 0. -1.
        -12    1    6    6    0    0 -0.53381517395E+02  0.47190792310E+02 -0.37412510567E+01  0.71348120072E+02  0.00000000000E+00 0.  1.
</event>
<event>
12    1  0.8297444E-002  0.1963485E+03  0.7818608E-02  0.1154201E+00
         21   -1    0    0  503  502  0.00000000000E+00  0.00000000000E+00  0.10073125189E+04  0.10073125189E+04  0.00000000000E+00 0.  1.
         21   -1    0    0  501  503 -0.00000000000E+00 -0.00000000000E+00 -0.54716225159E+02  0.54716225159E+02  0.00000000000E+00 0.  1.
          6    2    1    2  501    0 -0.62698034817E+02  0.44865861606E+02  0.77255373814E+03  0.79563046047E+03  0.17390963805E+03 0.  0.
         24    2    3    3    0    0 -0.66198643563E+02  0.68745089367E+01  0.73340347821E+03  0.74076307497E+03  0.80123355553E+02 0.  0.
         -6    2    1    2    0  502  0.62698034817E+02 -0.44865861606E+02  0.18004255563E+03  0.26639828362E+03  0.18057888739E+03 0.  0.
        -24    2    5    5    0    0  0.97305729125E+02 -0.50614493570E+02  0.18577292980E+03  0.23054209220E+03  0.81288639738E+02 0.  0.
          5    1    3    3  501    0  0.35006087462E+01  0.37991352669E+02  0.39150259935E+02  0.54867385505E+02  0.47000000000E+01 0. -1.
        -11    1    4    4    0    0 -0.63339416664E+02 -0.11063727783E+02  0.29242042098E+03  0.29940606270E+03  0.00000000000E+00 0.  1.
         12    1    4    4    0    0 -0.28592268991E+01  0.17938236720E+02  0.44098305722E+03  0.44135701226E+03  0.00000000000E+00 0. -1.
         -5    1    5    5    0  502 -0.34607694308E+02  0.57486319645E+01 -0.57303741701E+01  0.35856191417E+02  0.47000000000E+01 0.  1.
         13    1    6    6    0    0 -0.64177494644E+01 -0.28072211573E+02  0.26459698675E+02  0.39106933206E+02  0.00000000000E+00 0. -1.
        -14    1    6    6    0    0  0.10372347859E+03 -0.22542281997E+02  0.15931323112E+03  0.19143515899E+03  0.00000000000E+00 0.  1.
</event>
<event>
12    1  0.8297444E-002  0.1810956E+03  0.7818608E-02  0.1166923E+00
         21   -1    0    0  501  502  0.00000000000E+00  0.00000000000E+00  0.18498939783E+03  0.18498939783E+03  0.00000000000E+00 0. -1.
         21   -1    0    0  502  503 -0.00000000000E+00 -0.00000000000E+00 -0.23861509017E+03  0.23861509017E+03  0.00000000000E+00 0. -1.
         -6    2    1    2    0  503 -0.20956936729E+02 -0.46440194141E+02 -0.13477743546E+03  0.22515750418E+03  0.17301751285E+03 0.  0.
        -24    2    3    3    0    0 -0.90813821222E+01  0.42450991394E+02 -0.74867330870E+02  0.11720389241E+03  0.79038452624E+02 0.  0.
          6    2    1    2  501    0  0.20956936729E+02  0.46440194141E+02  0.81151743123E+02  0.19844698382E+03  0.17378065239E+03 0.  0.
         24    2    5    5    0    0  0.32644516219E+02 -0.34599687139E+02  0.65882955574E+02  0.11502463822E+03  0.81408235287E+02 0.  0.
          5    1    5    5  501    0 -0.11687579490E+02  0.81039881280E+02  0.15268787549E+02  0.83422345600E+02  0.47000000000E+01 0. -1.
        -11    1    6    6    0    0  0.54138067163E+02 -0.20731763348E+02  0.68000823806E+02  0.89357978748E+02  0.00000000000E+00 0.  1.
         12    1    6    6    0    0 -0.21493550945E+02 -0.13867923790E+02 -0.21178682313E+01  0.25666659469E+02  0.00000000000E+00 0. -1.
         -5    1    3    3    0  503 -0.11875554607E+02 -0.88891185535E+02 -0.59910104587E+02  0.10795361177E+03  0.47000000000E+01 0.  1.
         13    1    4    4    0    0  0.21391329830E+01 -0.18356271262E+02  0.19599658593E+01  0.18584134382E+02  0.00000000000E+00 0. -1.
        -14    1    4    4    0    0 -0.11220515105E+02  0.60807262657E+02 -0.76827296729E+02  0.98619758029E+02  0.00000000000E+00 0.  1.
</event>
<event>
12    1  0.8297444E-002  0.1783102E+03  0.7818608E-02  0.1169456E+00
         21   -1    0    0  501  502  0.00000000000E+00  0.00000000000E+00  0.39446174470E+03  0.39446174470E+03  0.00000000000E+00 0. -1.
         21   -1    0    0  502  503 -0.00000000000E+00 -0.00000000000E+00 -0.14503402013E+03  0.14503402013E+03  0.00000000000E+00 0. -1.
         -6    2    1    2    0  503  0.18153860865E+02 -0.43844907647E+02 -0.55091846929E+02  0.18662704704E+03  0.17187962211E+03 0.  0.
        -24    2    3    3    0    0  0.38996026129E+02 -0.60971086180E+01 -0.93813894634E+02  0.12848257900E+03  0.78414676518E+02 0.  0.
          6    2    1    2  501    0 -0.18153860865E+02  0.43844907647E+02  0.30451957150E+03  0.35286871780E+03  0.17184942242E+03 0.  0.
         24    2    5    5    0    0  0.14471020778E+02  0.73203467269E+02  0.11575548208E+03  0.15901238085E+03  0.79482372682E+02 0.  0.
          5    1    5    5  501    0 -0.32624881643E+02 -0.29358559622E+02  0.18876408941E+03  0.19385633695E+03  0.47000000000E+01 0. -1.
        -13    1    6    6    0    0  0.78640818355E+01 -0.16783601004E+02  0.24017669870E+02  0.30337790159E+02  0.00000000000E+00 0.  1.
         14    1    6    6    0    0  0.66069389429E+01  0.89987068273E+02  0.91737812214E+02  0.12867459069E+03  0.00000000000E+00 0. -1.
         -5    1    3    3    0  503 -0.20842165264E+02 -0.37747799029E+02  0.38722047705E+02  0.58144468033E+02  0.47000000000E+01 0.  1.
         11    1    4    4    0    0  0.16357554107E+02 -0.29638951114E+02 -0.54668837624E+01  0.34291745619E+02  0.00000000000E+00 0. -1.
        -12    1    4    4    0    0  0.22638472021E+02  0.23541842496E+02 -0.88347010871E+02  0.94190833383E+02  0.00000000000E+00 0.  1.
</event>
<event>
12    1  0.8297444E-002  0.1934282E+03  0.7818608E-02  0.1155872E+00
         21   -1    0    0  503  502  0.00000000000E+00  0.00000000000E+00  0.34571862151E+03  0.34571862151E+03  0.00000000000E+00 0. -1.
         21   -1    0    0  501  503 -0.00000000000E+00 -0.00000000000E+00 -0.12072766530E+03  0.12072766530E+03  0.00000000000E+00 0. -1.
          6    2    1    2  501    0  0.74100775327E+02 -0.36397040817E+02  0.33443432135E+02  0.19422410370E+03  0.17259452431E+03 0.  0.
         24    2    3    3    0    0  0.10134248995E+03 -0.53576500766E+02  0.94101203997E+01  0.15376505116E+03  0.10205096221E+03 0.  0.
         -6    2    1    2    0  502 -0.74100775327E+02  0.36397040817E+02  0.19154752408E+03  0.27222218310E+03  0.17492510829E+03 0.  0.
        -24    2    5    5    0    0  0.20961068659E+02  0.90944272606E+01  0.40144755036E+02  0.91315921847E+02  0.78771322316E+02 0.  0.
          5    1    3    3  501    0 -0.27241714621E+02  0.17179459949E+02  0.24033311735E+02  0.40459052542E+02  0.47000000000E+01 0. -1.
        -13    1    4    4    0    0  0.11631159173E+03 -0.22131974672E+02  0.35649034643E+01  0.11845218112E+03  0.00000000000E+00 0.  1.
         14    1    4    4    0    0 -0.14969101785E+02 -0.31444526094E+02  0.58452169354E+01  0.35312870041E+02  0.00000000000E+00 0. -1.
         -5    1    5    5    0  502 -0.95061843985E+02  0.27302613556E+02  0.15140276904E+03  0.18090626126E+03  0.47000000000E+01 0.  1.
         11    1    6    6    0    0 -0.46135317040E+01  0.31522944741E+02  0.46839406482E+02  0.56647248119E+02  0.00000000000E+00 0. -1.
        -12    1    6    6    0    0  0.25574600363E+02 -0.22428517480E+02 -0.66946514460E+01  0.34668673728E+02  0.00000000000E+00 0.  1.
</event>
<event>
12    1  0.8297444E-002  0.1861406E+03  0.7818608E-02  0.1162183E+00
         21   -1    0    0  501  502  0.00000000000E+00  0.00000000000E+00  0.65000602362E+02  0.65000602362E+02  0.00000000000E+00 0. -1.
         21   -1    0    0  502  503 -0.00000000000E+00 -0.00000000000E+00 -0.75648759088E+03  0.75648759088E+03  0.00000000000E+00 0.  1.
         -6    2    1    2    0  503 -0.40563872960E+02 -0.58290903736E+02 -0.57070920137E+03  0.60029768112E+03  0.17206119896E+03 0.  0.
        -24    2    3    3    0    0 -0.36121655853E+02  0.11010454570E+02 -0.46504376425E+03  0.47376829261E+03  0.82247725098E+02 0.  0.
          6    2    1    2  501    0  0.40563872960E+02  0.58290903736E+02 -0.12077778715E+03  0.22119051212E+03  0.17115697922E+03 0.  0.
         24    2    5    5    0    0  0.33145489201E+02  0.95824789086E+02 -0.43109477306E+02  0.13448248872E+03  0.77110953063E+02 0.  0.
          5    1    5    5  501    0  0.74183837588E+01 -0.37533885350E+02 -0.77668309848E+02  0.86708023399E+02  0.47000000000E+01 0. -1.
        -13    1    6    6    0    0  0.57943574879E+02  0.76169730753E+02 -0.33824325375E+02  0.10150552074E+03  0.00000000000E+00 0.  1.
         14    1    6    6    0    0 -0.24798085678E+02  0.19655058333E+02 -0.92851519314E+01  0.32976967989E+02  0.00000000000E+00 0. -1.
         -5    1    3    3    0  503 -0.44422171068E+01 -0.69301358306E+02 -0.10566543712E+03  0.12652938851E+03  0.47000000000E+01 0.  1.
         13    1    4    4    0    0 -0.18208722457E+02  0.25602720213E+02 -0.57114778979E+02  0.65185541599E+02  0.00000000000E+00 0. -1.
        -14    1    4    4    0    0 -0.17912933396E+02 -0.14592265642E+02 -0.40792898527E+03  0.40858275101E+03  0.00000000000E+00 0.  1.
</event>
<event>
12    1  0.8297444E-002  0.2280984E+03  0.7818608E-02  0.1129437E+00
         21   -1    0    0  501  502  0.00000000000E+00  0.00000000000E+00  0.73726345895E+02  0.73726345895E+02  0.00000000000E+00 0.  1.
         21   -1    0    0  502  503 -0.00000000000E+00 -0.00000000000E+00 -0.69270655499E+03  0.69270655499E+03  0.00000000000E+00 0.  1.
         -6    2    1    2    0  503 -0.13722980911E+03  0.61761560743E+02 -0.35353984367E+03  0.41645078829E+03  0.16060612414E+03 0.  0.
        -24    2    3    3    0    0 -0.59473479401E+02  0.24903883302E+02 -0.82696426339E+02  0.13222766835E+03  0.80549110443E+02 0.  0.
          6    2    1    2  501    0  0.13722980911E+03 -0.61761560743E+02 -0.26544036542E+03  0.34998211259E+03  0.17141289521E+03 0.  0.
         24    2    5    5    0    0  0.13276608492E+03 -0.98824936782E+02 -0.22700817642E+03  0.29619789717E+03  0.93847113384E+02 0.  0.
          5    1    5    5  501    0  0.44637241864E+01  0.37063376039E+02 -0.38432188998E+02  0.53784215418E+02  0.47000000000E+01 0. -1.
        -13    1    6    6    0    0  0.61780306498E+02  0.38610850559E+01 -0.10345453065E+03  0.12055933875E+03  0.00000000000E+00 0.  1.
         14    1    6    6    0    0  0.70985778426E+02 -0.10268602184E+03 -0.12355364578E+03  0.17563855842E+03  0.00000000000E+00 0. -1.
         -5    1    3    3    0  503 -0.77756329709E+02  0.36857677441E+02 -0.27084341733E+03  0.28422311994E+03  0.47000000000E+01 0.  1.
         11    1    4    4    0    0 -0.71739007756E+02  0.38286288401E+02 -0.51863113957E+02  0.96447434920E+02  0.00000000000E+00 0. -1.
        -12    1    4    4    0    0  0.12265528354E+02 -0.13382405099E+02 -0.30833312382E+02  0.35780233433E+02  0.00000000000E+00 0.  1.
</event>
<event>
12    1  0.8297444E-002  0.1918606E+03  0.7818608E-02  0.1157429E+00
         21   -1    0    0  503  502  0.00000000000E+00  0.00000000000E+00  0.80751723157E+03  0.80751723157E+03  0.00000000000E+00 0. -1.
         21   -1    0    0  501  503 -0.00000000000E+00 -0.00000000000E+00 -0.71037629951E+02  0.71037629951E+02  0.00000000000E+00 0.  1.
          6    2    1    2  501    0 -0.19410559911E+02 -0.77501394648E+02  0.10359349174E+03  0.21804151649E+03  0.17443410037E+03 0.  0.
         24    2    3    3    0    0  0.20034121769E+02 -0.10805992118E+03  0.31207241998E+02  0.12999854057E+03  0.62027542239E+02 0.  0.
         -6    2    1    2    0  502  0.19410559911E+02  0.77501394648E+02  0.63288610987E+03  0.66051334503E+03  0.17131787673E+03 0.  0.
        -24    2    5    5    0    0  0.48142659982E+02  0.56213415305E+02  0.60258571893E+03  0.61340798089E+03  0.87647810013E+02 0.  0.
          5    1    3    3  501    0 -0.39444681680E+02  0.30558526531E+02  0.72386249746E+02  0.88042975920E+02  0.47000000000E+01 0. -1.
        -11    1    4    4    0    0  0.36542889209E+02 -0.34160107680E+02  0.17824051017E+02  0.53103601602E+02  0.00000000000E+00 0.  1.
         12    1    4    4    0    0 -0.16508767441E+02 -0.73899813499E+02  0.13383190981E+02  0.76894938965E+02  0.00000000000E+00 0. -1.
         -5    1    5    5    0  502 -0.28732100071E+02  0.21287979343E+02  0.30300390947E+02  0.47105364138E+02  0.47000000000E+01 0.  1.
         13    1    6    6    0    0  0.68738812250E+02  0.19475883781E+02  0.33558337017E+03  0.34310425922E+03  0.00000000000E+00 0. -1.
        -14    1    6    6    0    0 -0.20596152268E+02  0.36737531524E+02  0.26700234875E+03  0.27030372167E+03  0.00000000000E+00 0.  1.
</event>
<event>
12    1  0.8297444E-002  0.3077896E+03  0.7818608E-02  0.1081627E+00
         21   -1    0    0  503  502  0.00000000000E+00  0.00000000000E+00  0.23734848461E+04  0.23734848461E+04  0.00000000000E+00 0. -1.
         21   -1    0    0  501  503 -0.00000000000E+00 -0.00000000000E+00 -0.41159245194E+02  0.41159245194E+02  0.00000000000E+00 0.  1.
          6    2    1    2  501    0  0.19258923502E+02  0.25451747605E+03  0.93415309493E+03  0.98299442212E+03  0.16877789369E+03 0.  0.
         24    2    3    3    0    0 -0.23607733454E+02  0.18755620016E+03  0.48495662091E+03  0.52679169852E+03  0.81190616235E+02 0.  0.
         -6    2    1    2    0  502 -0.19258923502E+02 -0.25451747605E+03  0.13981725059E+04  0.14316496691E+04  0.17200106697E+03 0.  0.
        -24    2    5    5    0    0 -0.18082054229E+02 -0.82484506646E+02  0.34020522303E+03  0.35977580096E+03  0.81045534472E+02 0.  0.
          5    1    3    3  501    0  0.42866656956E+02  0.66961275883E+02  0.44919647402E+03  0.45620272360E+03  0.47000000000E+01 0. -1.
        -13    1    4    4    0    0 -0.37592981947E+02  0.71343778246E+02  0.12947580424E+03  0.15253573636E+03  0.00000000000E+00 0.  1.
         14    1    4    4    0    0  0.13985248493E+02  0.11621242192E+03  0.35548081668E+03  0.37425596215E+03  0.00000000000E+00 0. -1.
         -5    1    5    5    0  502 -0.11768692732E+01 -0.17203296940E+03  0.10579672829E+04  0.10718738682E+04  0.47000000000E+01 0.  1.
         13    1    6    6    0    0 -0.33745264148E+02 -0.91849369244E+00  0.88398860282E+02  0.94625287224E+02  0.00000000000E+00 0. -1.
        -14    1    6    6    0    0  0.15663209919E+02 -0.81566012954E+02  0.25180636275E+03  0.26515051374E+03  0.00000000000E+00 0.  1.
</event>
<event>
12    1  0.8297444E-002  0.1962929E+03  0.7818608E-02  0.1153317E+00
         21   -1    0    0  503  502  0.00000000000E+00  0.00000000000E+00  0.19148255866E+03  0.19148255866E+03  0.00000000000E+00 0.  1.
         21   -1    0    0  501  503 -0.00000000000E+00 -0.00000000000E+00 -0.36674354712E+03  0.36674354712E+03  0.00000000000E+00 0.  1.
          6    2    1    2  501    0  0.17464750782E+01 -0.91693457380E+02 -0.27600236183E+03  0.33759131915E+03  0.17140552712E+03 0.  0.
         24    2    3    3    0    0  0.52789835609E+02 -0.95299704138E+02 -0.23982824540E+03  0.27474956257E+03  0.78108478983E+02 0.  0.
         -6    2    1    2    0  502 -0.17464750782E+01  0.91693457380E+02  0.10074137337E+03  0.22063478663E+03  0.17355156139E+03 0.  0.
        -24    2    5    5    0    0  0.12863400381E+02 -0.92263805206E+01  0.74223991806E+01  0.82327942668E+02  0.80450015335E+02 0.  0.
          5    1    3    3  501    0 -0.51043360531E+02  0.36062467587E+01 -0.36174116425E+02  0.62841756572E+02  0.47000000000E+01 0. -1.
        -13    1    4    4    0    0  0.12976827181E+01 -0.17636506002E+02 -0.12786851317E+03  0.12908558008E+03  0.00000000000E+00 0.  1.
         14    1    4    4    0    0  0.51492152891E+02 -0.77663198137E+02 -0.11195973223E+03  0.14566398249E+03  0.00000000000E+00 0. -1.
         -5    1    5    5    0  502 -0.14609875460E+02  0.10091983790E+03  0.93318974191E+02  0.13830684396E+03  0.47000000000E+01 0.  1.
         13    1    6    6    0    0 -0.14739251431E+01 -0.43379095263E+02  0.11932050978E+02  0.45014355507E+02  0.00000000000E+00 0. -1.
        -14    1    6    6    0    0  0.14337325525E+02  0.34152714743E+02 -0.45096517973E+01  0.37313587161E+02  0.00000000000E+00 0.  1.
</event>
<event>
12    1  0.8297444E-002  0.1823180E+03  0.7818608E-02  0.1165712E+00
         21   -1    0    0  503  502  0.00000000000E+00  0.00000000000E+00  0.12256681756E+03  0.12256681756E+03  0.00000000000E+00 0.  1.
         21   -1    0    0  501  503 -0.00000000000E+00 -0.00000000000E+00 -0.29958971414E+03  0.29958971414E+03  0.00000000000E+00 0. -1.
          6    2    1    2  501    0  0.49369221144E+02  0.39174260437E+02 -0.15431210048E+03  0.23842949852E+03  0.17048301597E+03 0.  0.
         24    2    3    3    0    0  0.72453341860E+02  0.35745381727E+02 -0.17469845629E+03  0.20708739678E+03  0.76409555774E+02 0.  0.
         -6    2    1    2    0  502 -0.49369221144E+02 -0.39174260437E+02 -0.22710796098E+02  0.18372703317E+03  0.17107863625E+03 0.  0.
        -24    2    5    5    0    0 -0.37881793181E+02  0.35634295138E+02 -0.43372120749E+02  0.10513147780E+03  0.80415505473E+02 0.  0.
          5    1    3    3  501    0 -0.23084120717E+02  0.34288787099E+01  0.20386355808E+02  0.31342101742E+02  0.47000000000E+01 0. -1.
        -11    1    4    4    0    0  0.53975577279E+02 -0.15454629853E+02 -0.99640310433E+02  0.11436957633E+03  0.00000000000E+00 0.  1.
         12    1    4    4    0    0  0.18477764582E+02  0.51200011580E+02 -0.75058145857E+02  0.92717820451E+02  0.00000000000E+00 0. -1.
         -5    1    5    5    0  502 -0.11487427963E+02 -0.74808555575E+02  0.20661324651E+02  0.78595555375E+02  0.47000000000E+01 0.  1.
         13    1    6    6    0    0 -0.60579301928E+02  0.12543953311E+02 -0.19366001469E+02  0.64824722133E+02  0.00000000000E+00 0. -1.
        -14    1    6    6    0    0  0.22697508748E+02  0.23090341827E+02 -0.24006119280E+02  0.40306755662E+02  0.00000000000E+00 0.  1.
</event>
<event>
12    1  0.8297444E-002  0.2153730E+03  0.7818608E-02  0.1137533E+00
         21   -1    0    0  501  502  0.00000000000E+00  0.00000000000E+00  0.64568772377E+02  0.64568772377E+02  0.00000000000E+00 0. -1.
         21   -1    0    0  502  503 -0.00000000000E+00 -0.00000000000E+00 -0.11860602851E+04  0.11860602851E+04  0.00000000000E+00 0. -1.
         -6    2    1    2    0  503  0.88711331739E+02  0.93765839712E+02 -0.95388849474E+03  0.97772558493E+03  0.17141273568E+03 0.  0.
        -24    2    3    3    0    0  0.28503855364E+02  0.93488970834E+02 -0.35438291619E+03  0.37518592185E+03  0.74997114822E+02 0.  0.
          6    2    1    2  501    0 -0.88711331739E+02 -0.93765839712E+02 -0.16760301801E+03  0.27290347258E+03  0.17240591817E+03 0.  0.
         24    2    5    5    0    0 -0.14693146889E+02  0.92958720738E+01 -0.31879944937E+02  0.87045325889E+02  0.79109140223E+02 0.  0.
          5    1    5    5  501    0 -0.74018184851E+02 -0.10306171179E+03 -0.13572307307E+03  0.18585814669E+03  0.47000000000E+01 0. -1.
        -13    1    6    6    0    0  0.44985116033E+01  0.23984918095E+02 -0.50796720374E+02  0.56354411571E+02  0.00000000000E+00 0.  1.
         14    1    6    6    0    0 -0.19191658492E+02 -0.14689046022E+02  0.18916775438E+02  0.30690914318E+02  0.00000000000E+00 0. -1.
         -5    1    3    3    0  503  0.60207476375E+02  0.27686887785E+00 -0.59950557855E+03  0.60253966308E+03  0.47000000000E+01 0.  1.
         11    1    4    4    0    0  0.32498107193E+02  0.31253493484E+02 -0.24637415805E+03  0.25046583316E+03  0.00000000000E+00 0. -1.
        -12    1    4    4    0    0 -0.39942518287E+01  0.62235477350E+02 -0.10800875814E+03  0.12472008869E+03  0.00000000000E+00 0.  1.
</event>
<event>
12    1  0.8297444E-002  0.2305963E+03  0.7818608E-02  0.1127551E+00
         21   -1    0    0  501  502  0.00000000000E+00  0.00000000000E+00  0.39804863840E+03  0.39804863840E+03  0.00000000000E+00 0. -1.
         21   -1    0    0  502  503 -0.00000000000E+00 -0.00000000000E+00 -0.13207085878E+03  0.13207085878E+03  0.00000000000E+00 0. -1.
         -6    2    1    2    0  503  0.15211873936E+03  0.14778299920E+02  0.16920901576E+03  0.28004181650E+03  0.16258296025E+03 0.  0.
        -24    2    3    3    0    0  0.16201358801E+03  0.10431192858E+02  0.18606840830E+03  0.25947158348E+03  0.79667042014E+02 0.  0.
          6    2    1    2  501    0 -0.15211873936E+03 -0.14778299920E+02  0.96768763859E+02  0.25007768067E+03  0.17267351765E+03 0.  0.
         24    2    5    5    0    0 -0.94634086822E+02 -0.75326333448E+02  0.49349282411E+02  0.15394627653E+03  0.81452056347E+02 0.  0.
          5    1    5    5  501    0 -0.57484652539E+02  0.60548033528E+02  0.47419481448E+02  0.96131404142E+02  0.47000000000E+01 0. -1.
        -11    1    6    6    0    0 -0.13877082402E+02 -0.50190447518E+02 -0.66691771681E+01  0.52498879627E+02  0.00000000000E+00 0.  1.
         12    1    6    6    0    0 -0.80757004420E+02 -0.25135885930E+02  0.56018459580E+02  0.10144739690E+03  0.00000000000E+00 0. -1.
         -5    1    3    3    0  503 -0.98948486491E+01  0.43471070617E+01 -0.16859392543E+02  0.20570233020E+02  0.47000000000E+01 0.  1.
         11    1    4    4    0    0  0.44809680905E+02  0.38427541707E+02  0.76304647687E+02  0.96472704550E+02  0.00000000000E+00 0. -1.
        -12    1    4    4    0    0  0.11720390710E+03 -0.27996348849E+02  0.10976376062E+03  0.16299887893E+03  0.00000000000E+00 0.  1.
</event>
<event>
12    1  0.8297444E-002  0.1860835E+03  0.7818608E-02  0.1162059E+00
         21   -1    0    0  501  502  0.00000000000E+00  0.00000000000E+00  0.62404979058E+03  0.62404979058E+03  0.00000000000E+00 0.  1.
         21   -1    0    0  502  503 -0.00000000000E+00 -0.00000000000E+00 -0.55514533515E+02  0.55514533515E+02  0.00000000000E+00 0.  1.
         -6    2    1    2    0  503  0.65511336701E+02 -0.25649501777E+02  0.27429436183E+03  0.33145807253E+03  0.17227136946E+03 0.  0.
        -24    2    3    3    0    0  0.11019719372E+03 -0.33666047681E+01  0.20593436921E+03  0.24667286210E+03  0.79270303026E+02 0.  0.
          6    2    1    2  501    0 -0.65511336701E+02  0.25649501777E+02  0.29424089524E+03  0.34810625157E+03  0.17219357065E+03 0.  0.
         24    2    5    5    0    0 -0.11607621210E+03  0.13600475656E+02  0.20466570965E+03  0.24443470520E+03  0.64819846059E+02 0.  0.
          5    1    5    5  501    0  0.50564875400E+02  0.12049026121E+02  0.89575185587E+02  0.10367154637E+03  0.47000000000E+01 0. -1.
        -11    1    6    6    0    0 -0.13579293874E+02  0.23545412925E+02  0.22973317079E+02  0.35588719976E+02  0.00000000000E+00 0.  1.
         12    1    6    6    0    0 -0.10249691823E+03 -0.99449372698E+01  0.18169239258E+03  0.20884598522E+03  0.00000000000E+00 0. -1.
         -5    1    3    3    0  503 -0.44685857020E+02 -0.22282897009E+02  0.68359992615E+02  0.84785210426E+02  0.47000000000E+01 0.  1.
         11    1    4    4    0    0  0.47173756763E+02  0.36586734398E+02  0.10975916629E+03  0.12494409568E+03  0.00000000000E+00 0. -1.
        -12    1    4    4    0    0  0.63023436957E+02 -0.39953339166E+02  0.96175202924E+02  0.12172876642E+03  0.00000000000E+00 0.  1.
</event>
<event>
12    1  0.8297444E-002  0.2090209E+03  0.7818608E-02  0.1142506E+00
         21   -1    0    0  503  502  0.00000000000E+00  0.00000000000E+00  0.13670482602E+04  0.13670482602E+04  0.00000000000E+00 0.  1.
         21   -1    0    0  501  503 -0.00000000000E+00 -0.00000000000E+00 -0.41712539278E+02  0.41712539278E+02  0.00000000000E+00 0.  1.
          6    2    1    2  501    0  0.99075058375E+02  0.60731835858E+02  0.31890899000E+03  0.38085783895E+03  0.17275857869E+03 0.  0.
         24    2    3    3    0    0  0.11890940764E+03  0.38779458940E+01  0.18440961789E+03  0.23341992893E+03  0.79520251256E+02 0.  0.
         -6    2    1    2    0  502 -0.99075058375E+02 -0.60731835858E+02  0.10064267309E+04  0.10279029605E+04  0.17373977225E+03 0.  0.
        -24    2    5    5    0    0 -0.12047038178E+02 -0.15538948839E+02  0.19893254571E+03  0.21446259855E+03  0.77675339552E+02 0.  0.
          5    1    3    3  501    0 -0.19834349268E+02  0.56853889963E+02  0.13449937211E+03  0.14743791002E+03  0.47000000000E+01 0. -1.
        -11    1    4    4    0    0  0.83942642083E+02  0.36158776726E+02  0.14606762249E+03  0.17230662968E+03  0.00000000000E+00 0.  1.
         12    1    4    4    0    0  0.34966765561E+02 -0.32280830832E+02  0.38341995407E+02  0.61113299247E+02  0.00000000000E+00 0. -1.
         -5    1    5    5    0  502 -0.87028020197E+02 -0.45192887018E+02  0.80749418521E+03  0.81344036197E+03  0.47000000000E+01 0.  1.
         13    1    6    6    0    0 -0.26015138450E+02 -0.45526719901E+01  0.16445253009E+02  0.31112065142E+02  0.00000000000E+00 0. -1.
        -14    1    6    6    0    0  0.13968100272E+02 -0.10986276849E+02  0.18248729270E+03  0.18335053341E+03  0.00000000000E+00 0.  1.
</event>
<event>
12    1  0.8297444E-002  0.2304304E+03  0.7818608E-02  0.1126602E+00
         21   -1    0    0  503  502  0.00000000000E+00  0.00000000000E+00  0.16916713978E+03  0.16916713978E+03  0.00000000000E+00 0. -1.
         21   -1    0    0  501  503 -0.00000000000E+00 -0.00000000000E+00 -0.87861891084E+03  0.87861891084E+03  0.00000000000E+00 0.  1.
          6    2    1    2  501    0  0.99755836480E+02 -0.11724407861E+03 -0.77508916112E+03  0.80818967259E+03  0.16944007292E+03 0.  0.
         24    2    3    3    0    0  0.81838457937E+02 -0.37424553468E+02 -0.25883142363E+03  0.28546954617E+03  0.80006409311E+02 0.  0.
         -6    2    1    2    0  502 -0.99755836480E+02  0.11724407861E+03  0.65637390057E+02  0.23959637804E+03  0.17146648802E+03 0.  0.
        -24    2    5    5    0    0 -0.78584352669E+02  0.20209528915E+01  0.40514023924E+02  0.11968860534E+03  0.80649807060E+02 0.  0.
          5    1    3    3  501    0  0.17917378543E+02 -0.79819525145E+02 -0.51625773749E+03  0.52272012642E+03  0.47000000000E+01 0. -1.
        -11    1    4    4    0    0  0.34827686504E+02 -0.54560964896E+02 -0.18734013652E+03  0.19820745038E+03  0.00000000000E+00 0.  1.
         12    1    4    4    0    0  0.47010771433E+02  0.17136411428E+02 -0.71491287113E+02  0.87262095783E+02  0.00000000000E+00 0. -1.
         -5    1    5    5    0  502 -0.21171483811E+02  0.11522312572E+03  0.25123366133E+02  0.11990777270E+03  0.47000000000E+01 0.  1.
         13    1    6    6    0    0  0.64726647933E+01 -0.17591960541E+02  0.24653462051E+02  0.30970399679E+02  0.00000000000E+00 0. -1.
        -14    1    6    6    0    0 -0.85057017462E+02  0.19612913432E+02  0.15860561873E+02  0.88718205662E+02  0.00000000000E+00 0.  1.
</event>
<event>
12    1  0.8297444E-002  0.1856282E+03  0.7818608E-02  0.1163016E+00
         21   -1    0    0  503  502  0.00000000000E+00  0.00000000000E+00  0.12265526862E+03  0.12265526862E+03  0.00000000000E+00 0. -1.
         21   -1    0    0  501  503 -0.00000000000E+00 -0.00000000000E+00 -0.28026245636E+03  0.28026245636E+03  0.00000000000E+00 0. -1.
          6    2    1    2  501    0  0.40282898512E+02 -0.39333846162E+02 -0.99751025820E+02  0.21073230318E+03  0.17688406679E+03 0.  0.
         24    2    3    3    0    0 -0.14892663455E+02  0.23207922555E+02 -0.48328868131E+01  0.84291176223E+02  0.79506267049E+02 0.  0.
         -6    2    1    2    0  502 -0.40282898512E+02  0.39333846162E+02 -0.57856161913E+02  0.19218542181E+03  0.17440767620E+03 0.  0.
        -24    2    5    5    0    0 -0.40370186791E+02  0.10383148341E+02 -0.10464873050E+03  0.13696056329E+03  0.77905566874E+02 0.  0.
          5    1    3    3  501    0  0.55175561967E+02 -0.62541768717E+02 -0.94918139007E+02  0.12644112695E+03  0.47000000000E+01 0. -1.
        -13    1    4    4    0    0  0.28199497211E+02 -0.96633838860E+01  0.64901099601E+00  0.29816335227E+02  0.00000000000E+00 0.  1.
         14    1    4    4    0    0 -0.43092160666E+02  0.32871306441E+02 -0.54818978091E+01  0.54474840997E+02  0.00000000000E+00 0. -1.
         -5    1    5    5    0  502  0.87288278787E-01  0.28950697820E+02  0.46792568585E+02  0.55224858518E+02  0.47000000000E+01 0.  1.
         11    1    6    6    0    0  0.16276547580E+02 -0.43081479339E+01 -0.62795389964E+02  0.65013438153E+02  0.00000000000E+00 0. -1.
        -12    1    6    6    0    0 -0.56646734371E+02  0.14691296275E+02 -0.41853340535E+02  0.71947125134E+02  0.00000000000E+00 0.  1.
</event>
<event>
12    1  0.8297444E-002  0.2271014E+03  0.7818608E-02  0.1130691E+00
         21   -1    0    0  503  502  0.00000000000E+00  0.00000000000E+00  0.10586162394E+04  0.10586162394E+04  0.00000000000E+00 0.  1.
         21   -1    0    0  501  503 -0.00000000000E+00 -0.00000000000E+00 -0.47217774966E+02  0.47217774966E+02  0.00000000000E+00 0.  1.
          6    2    1    2  501    0  0.96443183365E+02  0.81175748003E+02  0.56550369651E+03  0.60543697083E+03  0.17569492080E+03 0.  0.
         24    2    3    3    0    0  0.12984021925E+03  0.92112424433E+02  0.42274219731E+03  0.45833867529E+03  0.77589913063E+02 0.  0.
         -6    2    1    2    0  502 -0.96443183365E+02 -0.81175748003E+02  0.44589476795E+03  0.50039704356E+03  0.18890279892E+03 0.  0.
        -24    2    5    5    0    0 -0.11812179398E+03 -0.93559649054E+01  0.35321045422E+03  0.38106341288E+03  0.80071264301E+02 0.  0.
          5    1    3    3  501    0 -0.33397035881E+02 -0.10936676430E+02  0.14276149920E+03  0.14709829554E+03  0.47000000000E+01 0. -1.
        -11    1    4    4    0    0  0.85309359802E+02  0.74856613938E+02  0.37078973818E+03  0.38777084658E+03  0.00000000000E+00 0.  1.
         12    1    4    4    0    0  0.44530859443E+02  0.17255810495E+02  0.51952459137E+02  0.70567828711E+02  0.00000000000E+00 0. -1.
         -5    1    5    5    0  502  0.21678610614E+02 -0.71819783097E+02  0.92684313721E+02  0.11933363068E+03  0.47000000000E+01 0.  1.
         13    1    6    6    0    0 -0.57834579193E+02  0.50450044211E+01  0.69005481274E+02  0.90177863503E+02  0.00000000000E+00 0. -1.
        -14    1    6    6    0    0 -0.60287214786E+02 -0.14400969326E+02  0.28420497295E+03  0.29088554937E+03  0.00000000000E+00 0.  1.
</event>
<event>
12    1  0.8297444E-002  0.2593455E+03  0.7818608E-02  0.1107829E+00
         21   -1    0    0  503  502  0.00000000000E+00  0.00000000000E+00  0.92633815475E+03  0.92633815475E+03  0.00000000000E+00 0. -1.
         21   -1    0    0  501  503 -0.00000000000E+00 -0.00000000000E+00 -0.78467808486E+02  0.78467808486E+02  0.00000000000E+00 0. -1.
          6    2    1    2  501    0  0.15739174283E+03 -0.11280842656E+03  0.56886036690E+03  0.62518972370E+03  0.17251716369E+03 0.  0.
         24    2    3    3    0    0  0.44868584545E+02  0.13514592676E+01  0.29663281481E+03  0.30924056512E+03  0.74991225991E+02 0.  0.
         -6    2    1    2    0  502 -0.15739174283E+03  0.11280842656E+03  0.27900997936E+03  0.37961623954E+03  0.16959958409E+03 0.  0.
        -24    2    5    5    0    0 -0.12712289450E+03  0.67995232856E+02  0.27828879087E+03  0.32532963325E+03  0.87241831422E+02 0.  0.
          5    1    3    3  501    0  0.11252315829E+03 -0.11415988583E+03  0.27222755209E+03  0.31594915857E+03  0.47000000000E+01 0. -1.
        -11    1    4    4    0    0  0.28226652359E+00 -0.29824131934E+02  0.14771586555E+03  0.15069683293E+03  0.00000000000E+00 0.  1.
         12    1    4    4    0    0  0.44586318021E+02  0.31175591201E+02  0.14891694926E+03  0.15854373219E+03  0.00000000000E+00 0. -1.
         -5    1    5    5    0  502 -0.30268848331E+02  0.44813193708E+02  0.72118849533E+00  0.54286606290E+02  0.47000000000E+01 0.  1.
         11    1    6    6    0    0 -0.81729958375E+02  0.57947729526E+02  0.10184698322E+03  0.14286543824E+03  0.00000000000E+00 0. -1.
        -12    1    6    6    0    0 -0.45392936127E+02  0.10047503331E+02  0.17644180765E+03  0.18246419501E+03  0.00000000000E+00 0.  1.
</event>
<event>
12    1  0.8297444E-002  0.1843899E+03  0.7818608E-02  0.1163859E+00
         21   -1    0    0  503  502  0.00000000000E+00  0.00000000000E+00  0.84927194915E+03  0.84927194915E+03  0.00000000000E+00 0. -1.
         21   -1    0    0  501  503 -0.00000000000E+00 -0.00000000000E+00 -0.39958494118E+02  0.39958494118E+02  0.00000000000E+00 0. -1.
          6    2    1    2  501    0  0.32580291723E+02 -0.56291504539E+02  0.37909568053E+03  0.42156039261E+03  0.17253817180E+03 0.  0.
         24    2    3    3    0    0  0.13324282304E+02 -0.11135607580E+02  0.35874656120E+03  0.36821223813E+03  0.81114849924E+02 0.  0.
         -6    2    1    2    0  502 -0.32580291723E+02  0.56291504539E+02  0.43021777451E+03  0.46767005066E+03  0.17145767377E+03 0.  0.
        -24    2    5    5    0    0 -0.22042593578E+02 -0.31464485206E+02  0.15406227055E+03  0.17767675904E+03  0.79736802898E+02 0.  0.
          5    1    3    3  501    0  0.19256009419E+02 -0.45155896959E+02  0.20349119324E+02  0.53348154477E+02  0.47000000000E+01 0. -1.
        -11    1    4    4    0    0  0.23703667620E+02 -0.38598499172E+02  0.28915506751E+03  0.29268133022E+03  0.00000000000E+00 0.  1.
         12    1    4    4    0    0 -0.10379385316E+02  0.27462891592E+02  0.69591493697E+02  0.75530907906E+02  0.00000000000E+00 0. -1.
         -5    1    5    5    0  502 -0.10537698145E+02  0.87755989745E+02  0.27615550396E+03  0.28999329162E+03  0.47000000000E+01 0.  1.
         13    1    6    6    0    0  0.18372442028E+01  0.17009168072E+02  0.99225880074E+02  0.10068993267E+03  0.00000000000E+00 0. -1.
        -14    1    6    6    0    0 -0.23879837781E+02 -0.48473653278E+02  0.54836390475E+02  0.76986826372E+02  0.00000000000E+00 0.  1.
</event>
<event>
12    1  0.8297444E-002  0.1920946E+03  0.7818608E-02  0.1157629E+00
         21   -1    0    0  503  502  0.00000000000E+00  0.00000000000E+00  0.14912135885E+03  0.14912135885E+03  0.00000000000E+00 0.  1.
         21   -1    0    0  501  503 -0.00000000000E+00 -0.00000000000E+00 -0.24254807327E+03  0.24254807327E+03  0.00000000000E+00 0.  1.
          6    2    1    2  501    0 -0.50969576566E+02  0.65246367832E+02 -0.33401630924E+02  0.19041501460E+03  0.16818805720E+03 0.  0.
         24    2    3    3    0    0  0.16629279401E+02  0.79126795626E+02 -0.42541066246E+02  0.12064474241E+03  0.78789776201E+02 0.  0.
         -6    2    1    2    0  502  0.50969576566E+02 -0.65246367832E+02 -0.60025083489E+02  0.20125441752E+03  0.17333592724E+03 0.  0.
        -24    2    5    5    0    0  0.69368679754E+02 -0.19553651820E+02  0.18739949018E+02  0.10823629219E+03  0.78546484501E+02 0.  0.
          5    1    3    3  501    0 -0.67598855967E+02 -0.13880427795E+02  0.91394353219E+01  0.69770272193E+02  0.47000000000E+01 0. -1.
        -11    1    4    4    0    0  0.28179363208E+01  0.85420979856E+02 -0.54462096497E+02  0.10134497777E+03  0.00000000000E+00 0.  1.
         12    1    4    4    0    0  0.13811343080E+02 -0.62941842292E+01  0.11921030251E+02  0.19299764637E+02  0.00000000000E+00 0. -1.
         -5    1    5    5    0  502 -0.18399103187E+02 -0.45692716012E+02 -0.78765032507E+02  0.93018125333E+02  0.47000000000E+01 0.  1.
         11    1    6    6    0    0 -0.23055444844E+01  0.22933787778E+02  0.11446858061E+01  0.23077791550E+02  0.00000000000E+00 0. -1.
        -12    1    6    6    0    0  0.71674224238E+02 -0.42487439598E+02  0.17595263212E+02  0.85158500640E+02  0.00000000000E+00 0.  1.
</event>
<event>
12    1  0.8297444E-002  0.2899411E+03  0.7818608E-02  0.1090471E+00
         21   -1    0    0  503  502  0.00000000000E+00  0.00000000000E+00  0.80036038074E+03  0.80036038074E+03  0.00000000000E+00 0.  1.
         21   -1    0    0  501  503 -0.00000000000E+00 -0.00000000000E+00 -0.16893386379E+03  0.16893386379E+03  0.00000000000E+00 0. -1.
          6    2    1    2  501    0 -0.14966570942E+02 -0.23243192601E+03  0.16825642562E+02  0.28973550746E+03  0.17150791106E+03 0.  0.
         24    2    3    3    0    0 -0.43051129521E+02 -0.47467322237E+02  0.77698100233E+01  0.10237290397E+03  0.79456246369E+02 0.  0.
         -6    2    1    2    0  502  0.14966570942E+02  0.23243192601E+03  0.61460087439E+03  0.67955873708E+03  0.17267670333E+03 0.  0.
        -24    2    5    5    0    0  0.34895060018E+02  0.21177410654E+03  0.38285646869E+03  0.44599621921E+03  0.79168267127E+02 0.  0.
          5    1    3    3  501    0  0.28084558579E+02 -0.18496460378E+03  0.90558325388E+01  0.18736260348E+03  0.47000000000E+01 0. -1.
        -13    1    4    4    0    0 -0.45098192384E+01  0.18647383987E+02 -0.12879987448E+02  0.23107519897E+02  0.00000000000E+00 0.  1.
         14    1    4    4    0    0 -0.38541310282E+02 -0.66114706224E+02  0.20649797471E+02  0.79265384078E+02  0.00000000000E+00 0. -1.
         -5    1    5    5    0  502 -0.19928489076E+02  0.20657819477E+02  0.23174440570E+03  0.23356251787E+03  0.47000000000E+01 0.  1.
         11    1    6    6    0    0  0.41228371200E+02  0.49770202072E+02  0.13723533438E+03  0.15169175524E+03  0.00000000000E+00 0. -1.
        -12    1    6    6    0    0 -0.63333111811E+01  0.16200390446E+03  0.24562113431E+03  0.29430446397E+03  0.00000000000E+00 0.  1.
</event>
<event>
12    1  0.8297444E-002  0.1771863E+03  0.7818608E-02  0.1171332E+00
         21   -1    0    0  501  502  0.00000000000E+00  0.00000000000E+00  0.33067731994E+03  0.33067731994E+03  0.00000000000E+00 0. -1.
         21   -1    0    0  502  503 -0.00000000000E+00 -0.00000000000E+00 -0.11274686209E+03  0.11274686209E+03  0.00000000000E+00 0. -1.
         -6    2    1    2    0  503 -0.97006250061E+01  0.24575134729E+02  0.16037279901E+02  0.17480577102E+03  0.17205180575E+03 0.  0.
        -24    2    3    3    0    0  0.53192903942E+02 -0.13183599573E+02 -0.65052383349E+01  0.97919015802E+02  0.80885865281E+02 0.  0.
          6    2    1    2  501    0  0.97006250061E+01 -0.24575134729E+02  0.20189317796E+03  0.26861841101E+03  0.17520546811E+03 0.  0.
         24    2    5    5    0    0 -0.75454593841E+01  0.44242891160E+02  0.65326136394E+02  0.11465089835E+03  0.82842966027E+02 0.  0.
          5    1    5    5  501    0  0.17246084390E+02 -0.68818025889E+02  0.13656704156E+03  0.15396751266E+03  0.47000000000E+01 0. -1.
        -11    1    6    6    0    0 -0.23190893625E+01  0.13157423787E+02  0.79122226822E+02  0.80242275351E+02  0.00000000000E+00 0.  1.
         12    1    6    6    0    0 -0.52263700216E+01  0.31085467373E+02 -0.13796090428E+02  0.34408622996E+02  0.00000000000E+00 0. -1.
         -5    1    3    3    0  503 -0.62893528948E+02  0.37758734301E+02  0.22542518236E+02  0.76886755218E+02  0.47000000000E+01 0.  1.
         11    1    4    4    0    0  0.46777933693E+02  0.13097517348E+02  0.26426874481E+02  0.55300088030E+02  0.00000000000E+00 0. -1.
        -12    1    4    4    0    0  0.64149702486E+01 -0.26281116921E+02 -0.32932112816E+02  0.42618927772E+02  0.00000000000E+00 0.  1.
</event>
<event>
12    1  0.8297444E-002  0.2209541E+03  0.7818608E-02  0.1134280E+00
         21   -1    0    0  501  502  0.00000000000E+00  0.00000000000E+00  0.15426700417E+03  0.15426700417E+03  0.00000000000E+00 0. -1.
         21   -1    0    0  502  503 -0.00000000000E+00 -0.00000000000E+00 -0.39919540765E+03  0.39919540765E+03  0.00000000000E+00 0. -1.
         -6    2    1    2    0  503  0.13277999584E+03  0.80858127180E+01 -0.25592302549E+03  0.33810844241E+03  0.17642226672E+03 0.  0.
        -24    2    3    3    0    0  0.91000300794E+02  0.66016024085E+02 -0.21409550826E+03  0.25520438037E+03  0.81567266216E+02 0.  0.
          6    2    1    2  501    0 -0.13277999584E+03 -0.80858127180E+01  0.10994622005E+02  0.21535396941E+03  0.16899864722E+03 0.  0.
         24    2    5    5    0    0 -0.11456190100E+03 -0.18573725725E+02 -0.50363356718E+02  0.15032484630E+03  0.81189157333E+02 0.  0.
          5    1    5    5  501    0 -0.18218094847E+02  0.10487913007E+02  0.61357978723E+02  0.65029123107E+02  0.47000000000E+01 0. -1.
        -11    1    6    6    0    0 -0.29030442526E+02 -0.14726635902E+02 -0.55728278573E+02  0.64538991555E+02  0.00000000000E+00 0.  1.
         12    1    6    6    0    0 -0.85531458469E+02 -0.38470898230E+01  0.53649218545E+01  0.85785854746E+02  0.00000000000E+00 0. -1.
         -5    1    3    3    0  503  0.41779695048E+02 -0.57930211367E+02 -0.41827517222E+02  0.82904062050E+02  0.47000000000E+01 0.  1.
         11    1    4    4    0    0  0.11766964075E+02  0.48751050243E+02 -0.12523787481E+03  0.13490608448E+03  0.00000000000E+00 0. -1.
        -12    1    4    4    0    0  0.79233336718E+02  0.17264973842E+02 -0.88857633457E+02  0.12029829589E+03  0.00000000000E+00 0.  1.
</event>
<event>
12    1  0.8297444E-002  0.2520931E+03  0.7818608E-02  0.1112021E+00
         21   -1    0    0  501  502  0.00000000000E+00  0.00000000000E+00  0.10565726551E+03  0.10565726551E+03  0.00000000000E+00 0. -1.
         21   -1    0    0  502  503 -0.00000000000E+00 -0.00000000000E+00 -0.66438152006E+03  0.66438152006E+03  0.00000000000E+00 0.  1.
         -6    2    1    2    0  503  0.46544849731E+02  0.17799794999E+03 -0.16053964473E+03  0.29887105446E+03  0.17234046659E+03 0.  0.
        -24    2    3    3    0    0  0.69347762558E+02  0.18879842290E+03 -0.16550988049E+03  0.27272882250E+03  0.80830275399E+02 0.  0.
          6    2    1    2  501    0 -0.46544849731E+02 -0.17799794999E+03 -0.39818460982E+03  0.47116773111E+03  0.17204172199E+03 0.  0.
         24    2    5    5    0    0 -0.73556556823E+02 -0.46749800981E+02 -0.19595206297E+03  0.22852436742E+03  0.78930758122E+02 0.  0.
          5    1    5    5  501    0  0.27011707092E+02 -0.13124814901E+03 -0.20223254685E+03  0.24264336369E+03  0.47000000000E+01 0. -1.
        -11    1    6    6    0    0 -0.19467824236E+02 -0.51376807119E+02 -0.14078921602E+03  0.15112966565E+03  0.00000000000E+00 0.  1.
         12    1    6    6    0    0 -0.54088732587E+02  0.46270061382E+01 -0.55162846945E+02  0.77394701768E+02  0.00000000000E+00 0. -1.
         -5    1    3    3    0  503 -0.22802912827E+02 -0.10800472906E+02  0.49702357563E+01  0.26142231960E+02  0.47000000000E+01 0.  1.
         11    1    4    4    0    0  0.57050033671E+02  0.12535191574E+03 -0.62771980734E+02  0.15135432167E+03  0.00000000000E+00 0. -1.
        -12    1    4    4    0    0  0.12297728887E+02  0.63446507157E+02 -0.10273789975E+03  0.12137450083E+03  0.00000000000E+00 0.  1.
</event>
<event>
12    1  0.8297444E-002  0.1786560E+03  0.7818608E-02  0.1169221E+00
         21   -1    0    0  501  502  0.00000000000E+00  0.00000000000E+00  0.18546830248E+03  0.18546830248E+03  0.00000000000E+00 0.  1.
         21   -1    0    0  502  503 -0.00000000000E+00 -0.00000000000E+00 -0.18982387827E+03  0.18982387827E+03  0.00000000000E+00 0.  1.
         -6    2    1    2    0  503  0.43205928211E+02 -0.13555917467E+02 -0.60224442880E+02  0.18810430919E+03  0.17235351022E+03 0.  0.
        -24    2    3    3    0    0  0.29086827637E+02 -0.68846842218E+02 -0.71807665056E+01  0.11005203847E+03  0.80460900684E+02 0.  0.
          6    2    1    2  501    0 -0.43205928211E+02  0.13555917467E+02  0.55868867093E+02  0.18718787156E+03  0.17282202932E+03 0.  0.
         24    2    5    5    0    0 -0.68857522501E+02 -0.34405972061E+02  0.71117347581E+02  0.13050495267E+03  0.77773621654E+02 0.  0.
          5    1    5    5  501    0  0.25651594290E+02  0.47961889528E+02 -0.15248480488E+02  0.56682918890E+02  0.47000000000E+01 0. -1.
        -13    1    6    6    0    0 -0.11525570265E+02  0.20041510765E+02  0.38639923461E+02  0.45028264554E+02  0.00000000000E+00 0.  1.
         14    1    6    6    0    0 -0.57331952236E+02 -0.54447482827E+02  0.32477424121E+02  0.85476688113E+02  0.00000000000E+00 0. -1.
         -5    1    3    3    0  503  0.14119100575E+02  0.55290924751E+02 -0.53043676374E+02  0.78052270717E+02  0.47000000000E+01 0.  1.
         11    1    4    4    0    0 -0.17805614949E+02 -0.10738544666E+01 -0.19830442989E+02  0.26672824302E+02  0.00000000000E+00 0. -1.
        -12    1    4    4    0    0  0.46892442586E+02 -0.67772987751E+02  0.12649676483E+02  0.83379214169E+02  0.00000000000E+00 0.  1.
</event>
<event>
12    1  0.8297444E-002  0.1812524E+03  0.7818608E-02  0.1166964E+00
         21   -1    0    0  501  502  0.00000000000E+00  0.00000000000E+00  0.92161643373E+03  0.92161643373E+03  0.00000000000E+00 0.  1.
         21   -1    0    0  502  503 -0.00000000000E+00 -0.00000000000E+00 -0.12954256423E+03  0.12954256423E+03  0.00000000000E+00 0. -1.
         -6    2    1    2    0  503 -0.33147654065E+02  0.39147651730E+02 -0.51680051036E+02  0.18847612796E+03  0.17384222021E+03 0.  0.
        -24    2    3    3    0    0  0.28901608331E+02  0.32062891627E+02  0.17616913323E+02  0.95071288367E+02  0.82854464293E+02 0.  0.
          6    2    1    2  501    0  0.33147654065E+02 -0.39147651730E+02  0.84375392054E+03  0.86268287001E+03  0.17224909339E+03 0.  0.
         24    2    5    5    0    0  0.85152128448E+02 -0.47818614171E+02  0.53633883684E+03  0.55074413462E+03  0.78244802266E+02 0.  0.
          5    1    5    5  501    0 -0.52004474383E+02  0.86709624412E+01  0.30741508370E+03  0.31193873538E+03  0.47000000000E+01 0. -1.
        -11    1    6    6    0    0  0.11026179507E+02 -0.38351337090E+02  0.30589150934E+03  0.30848341475E+03  0.00000000000E+00 0.  1.
         12    1    6    6    0    0  0.74125948941E+02 -0.94672770812E+01  0.23044732750E+03  0.24226071987E+03  0.00000000000E+00 0. -1.
         -5    1    3    3    0  503 -0.62049262396E+02  0.70847601036E+01 -0.69296964358E+02  0.93404839590E+02  0.47000000000E+01 0.  1.
         11    1    4    4    0    0  0.95133706282E+01 -0.21489808913E+02 -0.16467894614E+02  0.28696823184E+02  0.00000000000E+00 0. -1.
        -12    1    4    4    0    0  0.19388237702E+02  0.53552700539E+02  0.34084807937E+02  0.66374465183E+02  0.00000000000E+00 0.  1.
</event>
<event>
12    1  0.8297444E-002  0.3721414E+03  0.7818608E-02  0.1053906E+00
         21   -1    0    0  503  502  0.00000000000E+00  0.00000000000E+00  0.35002067329E+03  0.35002067329E+03  0.00000000000E+00 0. -1.
         21   -1    0    0  501  503 -0.00000000000E+00 -0.00000000000E+00 -0.77057076402E+03  0.77057076402E+03  0.00000000000E+00 0.  1.
          6    2    1    2  501    0 -0.11555068169E+02 -0.33025080024E+03 -0.60130422355E+03  0.70714636940E+03  0.17114352993E+03 0.  0.
         24    2    3    3    0    0 -0.86308097946E+01 -0.59842506539E+02 -0.19341436834E+03  0.21773302613E+03  0.79642553448E+02 0.  0.
         -6    2    1    2    0  502  0.11555068169E+02  0.33025080024E+03  0.18075413282E+03  0.41344506791E+03  0.17048653024E+03 0.  0.
        -24    2    5    5    0    0 -0.29531760012E+02  0.20814549516E+03  0.17417547457E+03  0.28435904341E+03  0.79538026261E+02 0.  0.
          5    1    3    3  501    0 -0.29242583747E+01 -0.27040829370E+03 -0.40788985521E+03  0.48941334327E+03  0.47000000000E+01 0. -1.
        -11    1    4    4    0    0  0.24826296345E+02 -0.36340532021E+02 -0.15676208271E+03  0.16282300155E+03  0.00000000000E+00 0.  1.
         12    1    4    4    0    0 -0.33457106140E+02 -0.23501974517E+02 -0.36652285635E+02  0.54910024583E+02  0.00000000000E+00 0. -1.
         -5    1    5    5    0  502  0.41086828181E+02  0.12210530507E+03  0.65786582475E+01  0.12908602450E+03  0.47000000000E+01 0.  1.
         13    1    6    6    0    0 -0.81940449833E+00  0.14659056659E+03  0.15595394177E+03  0.21403527183E+03  0.00000000000E+00 0. -1.
        -14    1    6    6    0    0 -0.28712355513E+02  0.61554928579E+02  0.18221532805E+02  0.70323771580E+02  0.00000000000E+00 0.  1.
</event>
<event>
12    1  0.8297444E-002  0.2319745E+03  0.7818608E-02  0.1125495E+00
         21   -1    0    0  503  502  0.00000000000E+00  0.00000000000E+00  0.34799426310E+03  0.34799426310E+03  0.00000000000E+00 0.  1.
         21   -1    0    0  501  503 -0.00000000000E+00 -0.00000000000E+00 -0.37999680041E+03  0.37999680041E+03  0.00000000000E+00 0. -1.
          6    2    1    2  501    0 -0.44364304577E+02 -0.15115627212E+03 -0.29685964006E+03  0.37590946285E+03  0.16842169766E+03 0.  0.
         24    2    3    3    0    0  0.38301832795E+02 -0.88560779224E+02 -0.13973741715E+03  0.18759757015E+03  0.79726159842E+02 0.  0.
         -6    2    1    2    0  502  0.44364304577E+02  0.15115627212E+03  0.26485710274E+03  0.35208160066E+03  0.17028140983E+03 0.  0.
        -24    2    5    5    0    0  0.60149376892E+02  0.17052884320E+03  0.19430522179E+03  0.27708744806E+03  0.79529244665E+02 0.  0.
          5    1    3    3  501    0 -0.82666137372E+02 -0.62595492895E+02 -0.15712222291E+03  0.18831189270E+03  0.47000000000E+01 0. -1.
        -11    1    4    4    0    0  0.84640389331E+01  0.84950875853E+01 -0.52121136912E+02  0.53482888676E+02  0.00000000000E+00 0.  1.
         12    1    4    4    0    0  0.29837793862E+02 -0.97055866810E+02 -0.87616280236E+02  0.13411468148E+03  0.00000000000E+00 0. -1.
         -5    1    5    5    0  502 -0.15785072315E+02 -0.19372571080E+02  0.70551880952E+02  0.74994152599E+02  0.47000000000E+01 0.  1.
         11    1    6    6    0    0  0.58816990515E+02  0.13266741409E+03  0.10220330186E+03  0.17749815786E+03  0.00000000000E+00 0. -1.
        -12    1    6    6    0    0  0.13323863770E+01  0.37861429113E+02  0.92101919933E+02  0.99589290204E+02  0.00000000000E+00 0.  1.
</event>
<event>
12    1  0.8297444E-002  0.2575507E+03  0.7818608E-02  0.1109410E+00
         21   -1    0    0  501  502  0.00000000000E+00  0.00000000000E+00  0.59047192468E+02  0.59047192468E+02  0.00000000000E+00 0. -1.
         21   -1    0    0  502  503 -0.00000000000E+00 -0.00000000000E+00 -0.11325156698E+04  0.11325156698E+04  0.00000000000E+00 0.  1.
         -6    2    1    2    0  503  0.12261965709E+03 -0.13959580939E+03 -0.64109605780E+03  0.69089543768E+03  0.17835296518E+03 0.  0.
        -24    2    3    3    0    0  0.10455616533E+03 -0.17311175889E+02 -0.29750924742E+03  0.32571903156E+03  0.79683540973E+02 0.  0.
          6    2    1    2  501    0 -0.12261965709E+03  0.13959580939E+03 -0.43237241957E+03  0.50066742462E+03  0.17087829167E+03 0.  0.
         24    2    5    5    0    0 -0.33461664464E+02  0.86776152037E+02 -0.33588708425E+03  0.35899677210E+03  0.86074185797E+02 0.  0.
          5    1    5    5  501    0 -0.89157992631E+02  0.52819657350E+02 -0.96485335315E+02  0.14167065251E+03  0.47000000000E+01 0. -1.
        -11    1    6    6    0    0 -0.41246690571E+02  0.36885993502E+02 -0.27196547396E+03  0.27753753805E+03  0.00000000000E+00 0.  1.
         12    1    6    6    0    0  0.77850261072E+01  0.49890158535E+02 -0.63921610293E+02  0.81459234054E+02  0.00000000000E+00 0. -1.
         -5    1    3    3    0  503  0.18063491763E+02 -0.12228463350E+03 -0.34358681038E+03  0.36517640613E+03  0.47000000000E+01 0.  1.
         11    1    4    4    0    0  0.76898809469E+02 -0.40871351170E+02 -0.25675221730E+03  0.27111915339E+03  0.00000000000E+00 0. -1.
        -12    1    4    4    0    0  0.27657355863E+02  0.23560175281E+02 -0.40757030115E+02  0.54599878172E+02  0.00000000000E+00 0.  1.
</event>
<event>
12    1  0.8297444E-002  0.1766868E+03  0.7818608E-02  0.1171064E+00
         21   -1    0    0  503  502  0.00000000000E+00  0.00000000000E+00  0.11059605970E+03  0.11059605970E+03  0.00000000000E+00 0. -1.
         21   -1    0    0  501  503 -0.00000000000E+00 -0.00000000000E+00 -0.34394910201E+03  0.34394910201E+03  0.00000000000E+00 0. -1.
          6    2    1    2  501    0 -0.37398756330E+02 -0.13612356818E+01 -0.21297696750E+03  0.27668733684E+03  0.17261568221E+03 0.  0.
         24    2    3    3    0    0  0.29424442015E+02  0.35528908139E+02 -0.15909945938E+03  0.18314003100E+03  0.78099499866E+02 0.  0.
         -6    2    1    2    0  502  0.37398756330E+02  0.13612356818E+01 -0.20376074808E+02  0.17785782488E+03  0.17267802844E+03 0.  0.
        -24    2    5    5    0    0  0.63604805304E+02  0.52046112604E+02 -0.46200028767E+02  0.11505113455E+03  0.65939000663E+02 0.  0.
          5    1    3    3  501    0 -0.66823198345E+02 -0.36890143820E+02 -0.53877508119E+02  0.93547305837E+02  0.47000000000E+01 0. -1.
        -13    1    4    4    0    0 -0.30369545810E+01  0.28389840486E+02 -0.98018199588E+01  0.30187444583E+02  0.00000000000E+00 0.  1.
         14    1    4    4    0    0  0.32461396596E+02  0.71390676531E+01 -0.14929763942E+03  0.15295258642E+03  0.00000000000E+00 0. -1.
         -5    1    5    5    0  502 -0.26206048974E+02 -0.50684876923E+02  0.25823953959E+02  0.62806690324E+02  0.47000000000E+01 0.  1.
         11    1    6    6    0    0  0.11948875969E+02  0.29579983067E+02  0.11972858594E+02  0.34074923009E+02  0.00000000000E+00 0. -1.
        -12    1    6    6    0    0  0.51655929334E+02  0.22466129538E+02 -0.58172887361E+02  0.80976211542E+02  0.00000000000E+00 0.  1.
</event>
<event>
12    1  0.8297444E-002  0.1732723E+03  0.7818608E-02  0.1174559E+00
         21   -1    0    0  501  502  0.00000000000E+00  0.00000000000E+00  0.25930595439E+03  0.25930595439E+03  0.00000000000E+00 0.  1.
         21   -1    0    0  502  503 -0.00000000000E+00 -0.00000000000E+00 -0.24924070137E+03  0.24924070137E+03  0.00000000000E+00 0.  1.
         -6    2    1    2    0  503 -0.31527105049E+01  0.17143739251E+02 -0.18118192057E+03  0.25047926614E+03  0.17207302822E+03 0.  0.
        -24    2    3    3    0    0 -0.44352552268E+02  0.30234371455E+01 -0.35626645741E+02  0.98475194071E+02  0.80323196498E+02 0.  0.
          6    2    1    2  501    0  0.31527105049E+01 -0.17143739251E+02  0.19124717359E+03  0.25806738963E+03  0.17239329687E+03 0.  0.
         24    2    5    5    0    0 -0.12425857339E+02 -0.60725161779E+02  0.18537574718E+03  0.21117820310E+03  0.79938217501E+02 0.  0.
          5    1    5    5  501    0  0.15578567844E+02  0.43581422528E+02  0.58714264139E+01  0.46889186533E+02  0.47000000000E+01 0. -1.
        -13    1    6    6    0    0  0.16311521764E+02 -0.64371669635E+02  0.92350568401E+02  0.11374711020E+03  0.00000000000E+00 0.  1.
         14    1    6    6    0    0 -0.28737379103E+02  0.36465078560E+01  0.93025178779E+02  0.97431092902E+02  0.00000000000E+00 0. -1.
         -5    1    3    3    0  503  0.41199841763E+02  0.14120302106E+02 -0.14555527483E+03  0.15200407207E+03  0.47000000000E+01 0.  1.
         11    1    4    4    0    0 -0.35982096927E+02 -0.36103744633E+02 -0.26439191203E+02  0.57421446405E+02  0.00000000000E+00 0. -1.
        -12    1    4    4    0    0 -0.83704553414E+01  0.39127181778E+02 -0.91874545382E+01  0.41053747666E+02  0.00000000000E+00 0.  1.
</event>
<event>
12    1  0.8297444E-002  0.2022468E+03  0.7818608E-02  0.1147969E+00
         21   -1    0    0  503  502  0.00000000000E+00  0.00000000000E+00  0.46553553821E+03  0.46553553821E+03  0.00000000000E+00 0. -1.
         21   -1    0    0  501  503 -0.00000000000E+00 -0.00000000000E+00 -0.96454691630E+02  0.96454691630E+02  0.00000000000E+00 0. -1.
          6    2    1    2  501    0 -0.92180812866E+02 -0.50156391969E+02  0.99328630290E+02  0.22484035159E+03  0.17226154822E+03 0.  0.
         24    2    3    3    0    0 -0.39954498862E+02  0.37188125068E+02  0.68535921336E+02  0.11841228455E+03  0.79655370143E+02 0.  0.
         -6    2    1    2    0  502  0.92180812866E+02  0.50156391969E+02  0.26975221629E+03  0.33714987824E+03  0.17288960724E+03 0.  0.
        -24    2    5    5    0    0  0.11658329110E+02 -0.31827096726E+02  0.12179130458E+03  0.14974741240E+03  0.80263845702E+02 0.  0.
          5    1    3    3  501    0 -0.52226314004E+02 -0.87344517037E+02  0.30792708954E+02  0.10642806705E+03  0.47000000000E+01 0. -1.
        -11    1    4    4    0    0 -0.20403139955E+02  0.47436225421E+02  0.58681501929E+01  0.51970364526E+02  0.00000000000E+00 0.  1.
         12    1    4    4    0    0 -0.19551358907E+02 -0.10248100353E+02  0.62667771144E+02  0.66441920021E+02  0.00000000000E+00 0. -1.
         -5    1    5    5    0  502  0.80522483756E+02  0.81983488695E+02  0.14796091171E+03  0.18740246584E+03  0.47000000000E+01 0.  1.
         13    1    6    6    0    0 -0.59339938397E+01 -0.20970186276E+02  0.12664996861E+03  0.12851138294E+03  0.00000000000E+00 0. -1.
        -14    1    6    6    0    0  0.17592322950E+02 -0.10856910450E+02 -0.48586640324E+01  0.21236029466E+02  0.00000000000E+00 0.  1.
</event>
<event>
12    1  0.8297444E-002  0.2229861E+03  0.7818608E-02  0.1131886E+00
         21   -1    0    0  503  502  0.00000000000E+00  0.00000000000E+00  0.25276612001E+04  0.25276612001E+04  0.00000000000E+00 0.  1.
         21   -1    0    0  501  503 -0.00000000000E+00 -0.00000000000E+00 -0.22080210417E+02  0.22080210417E+02  0.00000000000E+00 0. -1.
          6    2    1    2  501    0 -0.13795681859E+03  0.40434906339E+02  0.82016174663E+03  0.84963529518E+03  0.16896087933E+03 0.  0.
         24    2    3    3    0    0 -0.11726757726E+03 -0.28973280595E+02  0.46087033882E+03  0.48308659876E+03  0.79875259247E+02 0.  0.
         -6    2    1    2    0  502  0.13795681859E+03 -0.40434906339E+02  0.16854192430E+04  0.17001061153E+04  0.17045736441E+03 0.  0.
        -24    2    5    5    0    0  0.32448380217E+02 -0.65690788633E+02  0.10324663486E+04  0.10381850758E+04  0.80456905192E+02 0.  0.
          5    1    3    3  501    0 -0.20689241333E+02  0.69408186934E+02  0.35929140781E+03  0.36654869642E+03  0.47000000000E+01 0. -1.
        -11    1    4    4    0    0 -0.47817285301E+02 -0.49974015784E+02  0.17551718699E+03  0.18865359248E+03  0.00000000000E+00 0.  1.
         12    1    4    4    0    0 -0.69450291960E+02  0.21000735189E+02  0.28535315182E+03  0.29443300628E+03  0.00000000000E+00 0. -1.
         -5    1    5    5    0  502  0.10550843838E+03  0.25255882294E+02  0.65295289442E+03  0.66192103947E+03  0.47000000000E+01 0.  1.
         13    1    6    6    0    0  0.33851014328E+02 -0.72247071089E+02  0.10251933860E+04  0.10282932506E+04  0.00000000000E+00 0. -1.
        -14    1    6    6    0    0 -0.14026341105E+01  0.65562824560E+01  0.72729625891E+01  0.98918252569E+01  0.00000000000E+00 0.  1.
</event>
<event>
12    1  0.8297444E-002  0.2188149E+03  0.7818608E-02  0.1134890E+00
         21   -1    0    0  503  502  0.00000000000E+00  0.00000000000E+00  0.26305419292E+03  0.26305419292E+03  0.00000000000E+00 0.  1.
         21   -1    0    0  501  503 -0.00000000000E+00 -0.00000000000E+00 -0.21561279088E+03  0.21561279088E+03  0.00000000000E+00 0. -1.
          6    2    1    2  501    0  0.13452964704E+03 -0.33295698839E+01  0.11891372960E+03  0.24847518277E+03  0.17172690354E+03 0.  0.
         24    2    3    3    0    0  0.16173557802E+03  0.14222512071E+02  0.84591887345E+02  0.20105876033E+03  0.83115345485E+02 0.  0.
         -6    2    1    2    0  502 -0.13452964704E+03  0.33295698839E+01 -0.71472327563E+02  0.23019180102E+03  0.17254176215E+03 0.  0.
        -24    2    5    5    0    0 -0.10066603165E+02 -0.13027344126E-01 -0.65218132562E+02  0.10543833534E+03  0.82234427552E+02 0.  0.
          5    1    3    3  501    0 -0.27205930983E+02 -0.17552081955E+02  0.34321842251E+02  0.47416422441E+02  0.47000000000E+01 0. -1.
        -11    1    4    4    0    0  0.58165753917E+01  0.24881745032E+02  0.65756021816E+01  0.26385077775E+02  0.00000000000E+00 0.  1.
         12    1    4    4    0    0  0.15591900263E+03 -0.10659232961E+02  0.78016285164E+02  0.17467368256E+03  0.00000000000E+00 0. -1.
         -5    1    5    5    0  502 -0.12446304387E+03  0.33425972281E+01 -0.62541950005E+01  0.12475346569E+03  0.47000000000E+01 0.  1.
         13    1    6    6    0    0  0.63965772523E+01 -0.87226308586E+01 -0.80575495300E+02  0.81298283700E+02  0.00000000000E+00 0. -1.
        -14    1    6    6    0    0 -0.16463180417E+02  0.87096035145E+01  0.15357362738E+02  0.24140051638E+02  0.00000000000E+00 0.  1.
</event>
<event>
12    1  0.8297444E-002  0.1831322E+03  0.7818608E-02  0.1165124E+00
         21   -1    0    0  501  502  0.00000000000E+00  0.00000000000E+00  0.14288393510E+03  0.14288393510E+03  0.00000000000E+00 0. -1.
         21   -1    0    0  502  503 -0.00000000000E+00 -0.00000000000E+00 -0.23866254410E+03  0.23866254410E+03  0.00000000000E+00 0. -1.
         -6    2    1    2    0  503 -0.56797661751E+02 -0.27624702345E+02 -0.77099828071E+02  0.19746421144E+03  0.17046592841E+03 0.  0.
        -24    2    3    3    0    0  0.25339927531E+02 -0.25473839889E+01 -0.19592279674E+01  0.83255388428E+02  0.79240267766E+02 0.  0.
          6    2    1    2  501    0  0.56797661751E+02  0.27624702345E+02 -0.18678780927E+02  0.18408226776E+03  0.17189614855E+03 0.  0.
         24    2    5    5    0    0 -0.25712579830E+01 -0.38322709073E+02 -0.32821362709E+02  0.94105424499E+02  0.79393624881E+02 0.  0.
          5    1    5    5  501    0  0.59368919734E+02  0.65947411418E+02  0.14142581783E+02  0.89976843258E+02  0.47000000000E+01 0. -1.
        -11    1    6    6    0    0  0.38114462723E+02 -0.15795278755E+02 -0.20084719907E+02  0.45886807181E+02  0.00000000000E+00 0.  1.
         12    1    6    6    0    0 -0.40685720706E+02 -0.22527430319E+02 -0.12736642803E+02  0.48218617317E+02  0.00000000000E+00 0. -1.
         -5    1    3    3    0  503 -0.82137589282E+02 -0.25077318356E+02 -0.75140600104E+02  0.11420882301E+03  0.47000000000E+01 0.  1.
         11    1    4    4    0    0 -0.10895608382E+02 -0.16832485139E+02  0.27772864658E+02  0.34254617927E+02  0.00000000000E+00 0. -1.
        -12    1    4    4    0    0  0.36235535913E+02  0.14285101150E+02 -0.29732092626E+02  0.49000770501E+02  0.00000000000E+00 0.  1.
</event>
<event>
12    1  0.8297444E-002  0.2367445E+03  0.7818608E-02  0.1122153E+00
         21   -1    0    0  503  502  0.00000000000E+00  0.00000000000E+00  0.89632733740E+02  0.89632733740E+02  0.00000000000E+00 0. -1.
         21   -1    0    0  501  503 -0.00000000000E+00 -0.00000000000E+00 -0.66645090977E+03  0.66645090977E+03  0.00000000000E+00 0. -1.
          6    2    1    2  501    0  0.97779049524E+02 -0.12815856080E+03 -0.38476435221E+03  0.45123511043E+03  0.17200046197E+03 0.  0.
         24    2    3    3    0    0  0.35984768593E+02 -0.50200511018E+02 -0.31298147053E+03  0.32847166805E+03  0.78238359777E+02 0.  0.
         -6    2    1    2    0  502 -0.97779049524E+02  0.12815856080E+03 -0.19205382382E+03  0.30484853309E+03  0.17338569043E+03 0.  0.
        -24    2    5    5    0    0 -0.58317584324E+01  0.73945811691E+01 -0.95254097468E+02  0.12476377488E+03  0.80024791164E+02 0.  0.
          5    1    3    3  501    0  0.61794280932E+02 -0.77958049782E+02 -0.71782881678E+02  0.12276344237E+03  0.47000000000E+01 0. -1.
        -13    1    4    4    0    0  0.32890803315E+02  0.13292208475E+02 -0.13046140856E+03  0.13519862008E+03  0.00000000000E+00 0.  1.
         14    1    4    4    0    0  0.30939652776E+01 -0.63492719492E+02 -0.18252006197E+03  0.19327304797E+03  0.00000000000E+00 0. -1.
         -5    1    5    5    0  502 -0.91947291092E+02  0.12076397963E+03 -0.96799726357E+02  0.18008475821E+03  0.47000000000E+01 0.  1.
         13    1    6    6    0    0 -0.12501740069E+02  0.37544207440E+02 -0.22018032388E+02  0.45284155809E+02  0.00000000000E+00 0. -1.
        -14    1    6    6    0    0  0.66699816368E+01 -0.30149626271E+02 -0.73236065080E+02  0.79479619071E+02  0.00000000000E+00 0.  1.
</event>
<event>
12    1  0.8297444E-002  0.1741435E+03  0.7818608E-02  0.1174370E+00
         21   -1    0    0  503  502  0.00000000000E+00  0.00000000000E+00  0.71493443879E+02  0.71493443879E+02  0.00000000000E+00 0.  1.
         21   -1    0    0  501  503 -0.00000000000E+00 -0.00000000000E+00 -0.53153534574E+03  0.53153534574E+03  0.00000000000E+00 0.  1.
          6    2    1    2  501    0  0.14893762204E+02  0.13541219842E+02 -0.36850955090E+03  0.40629512786E+03  0.16991542905E+03 0.  0.
         24    2    3    3    0    0  0.40411668216E+02 -0.17020940384E+02 -0.35109934283E+03  0.36258683905E+03  0.79219012758E+02 0.  0.
         -6    2    1    2    0  502 -0.14893762204E+02 -0.13541219842E+02 -0.91532350968E+02  0.19673366177E+03  0.17297622268E+03 0.  0.
        -24    2    5    5    0    0 -0.31283194806E+02 -0.72513771212E+02 -0.61939912523E+02  0.12858545762E+03  0.80378988886E+02 0.  0.
          5    1    3    3  501    0 -0.25517906012E+02  0.30562160226E+02 -0.17410208072E+02  0.43708288802E+02  0.47000000000E+01 0. -1.
        -13    1    4    4    0    0 -0.66922587603E+01 -0.38248415606E+02 -0.14472307656E+03  0.14984157138E+03  0.00000000000E+00 0.  1.
         14    1    4    4    0    0  0.47103926976E+02  0.21227475222E+02 -0.20637626626E+03  0.21274526767E+03  0.00000000000E+00 0. -1.
         -5    1    5    5    0  502  0.16389432602E+02  0.58972551369E+02 -0.29592438445E+02  0.68148204152E+02  0.47000000000E+01 0.  1.
         11    1    6    6    0    0 -0.12353727313E+02 -0.46060975602E+02  0.10806416234E+02  0.48897921058E+02  0.00000000000E+00 0. -1.
        -12    1    6    6    0    0 -0.18929467493E+02 -0.26452795609E+02 -0.72746328757E+02  0.79687536558E+02  0.00000000000E+00 0.  1.
</event>
<event>
12    1  0.8297444E-002  0.2014568E+03  0.7818608E-02  0.1148541E+00
         21   -1    0    0  501  502  0.00000000000E+00  0.00000000000E+00  0.29363749003E+03  0.29363749003E+03  0.00000000000E+00 0.  1.
         21   -1    0    0  502  503 -0.00000000000E+00 -0.00000000000E+00 -0.77146948722E+03  0.77146948722E+03  0.00000000000E+00 0.  1.
         -6    2    1    2    0  503 -0.41803013944E+02  0.96136260156E+02 -0.72145642718E+03  0.74905554420E+03  0.17203243731E+03 0.  0.
        -24    2    3    3    0    0  0.26030468932E+02  0.62941605623E+00 -0.28098162153E+03  0.29324518551E+03  0.79775219927E+02 0.  0.
          6    2    1    2  501    0  0.41803013944E+02 -0.96136260156E+02  0.24362443000E+03  0.31605143305E+03  0.17188942070E+03 0.  0.
         24    2    5    5    0    0 -0.32115524088E+02 -0.51963388746E+02  0.18792361851E+03  0.21338759699E+03  0.80544270432E+02 0.  0.
          5    1    5    5  501    0  0.73918538032E+02 -0.44172871410E+02  0.55700811492E+02  0.10266383606E+03  0.47000000000E+01 0. -1.
        -13    1    6    6    0    0 -0.45422875298E+02 -0.28613944624E+02  0.51675334785E+02  0.74513996353E+02  0.00000000000E+00 0.  1.
         14    1    6    6    0    0  0.13307351210E+02 -0.23349444122E+02  0.13624828372E+03  0.13887360064E+03  0.00000000000E+00 0. -1.
         -5    1    3    3    0  503 -0.67833482876E+02  0.95506844100E+02 -0.44047480566E+03  0.45581035869E+03  0.47000000000E+01 0.  1.
         13    1    4    4    0    0  0.24902720831E+02  0.36000329628E+02 -0.10532705793E+03  0.11406120449E+03  0.00000000000E+00 0. -1.
        -14    1    4    4    0    0  0.11277481013E+01 -0.35370913571E+02 -0.17565456360E+03  0.17918398102E+03  0.00000000000E+00 0.  1.
</event>
<event>
12    1  0.8297444E-002  0.1990060E+03  0.7818608E-02  0.1150614E+00
         21   -1    0    0  503  502  0.00000000000E+00  0.00000000000E+00  0.31182007757E+03  0.31182007757E+03  0.00000000000E+00 0. -1.
         21   -1    0    0  501  503 -0.00000000000E+00 -0.00000000000E+00 -0.15034351597E+03  0.15034351597E+03  0.00000000000E+00 0. -1.
          6    2    1    2  501    0 -0.52585763381E+02 -0.86093291861E+02 -0.10525073751E+02  0.19912753781E+03  0.17135834302E+03 0.  0.
         24    2    3    3    0    0  0.32107352933E+02 -0.19588999755E+02 -0.22175599314E+02  0.90713656939E+02  0.79514774265E+02 0.  0.
         -6    2    1    2    0  502  0.52585763381E+02  0.86093291861E+02  0.17200163535E+03  0.26303605573E+03  0.17154033530E+03 0.  0.
        -24    2    5    5    0    0  0.35683495745E+02 -0.65293056735E+01  0.30104231555E+02  0.92678797503E+02  0.79794429931E+02 0.  0.
          5    1    3    3  501    0 -0.84693116314E+02 -0.66504292106E+02  0.11650525563E+02  0.10841388087E+03  0.47000000000E+01 0. -1.
        -11    1    4    4    0    0  0.11557567972E+02 -0.21811674877E+02  0.27473418503E+02  0.36933931048E+02  0.00000000000E+00 0.  1.
         12    1    4    4    0    0  0.20549784961E+02  0.22226751228E+01 -0.49649017817E+02  0.53779725891E+02  0.00000000000E+00 0. -1.
         -5    1    5    5    0  502  0.16902267636E+02  0.92622597534E+02  0.14189740380E+03  0.17035725823E+03  0.47000000000E+01 0.  1.
         11    1    6    6    0    0  0.25147850975E+02  0.53028893910E+01  0.56399637089E+02  0.61979465215E+02  0.00000000000E+00 0. -1.
        -12    1    6    6    0    0  0.10535644770E+02 -0.11832195064E+02 -0.26295405534E+02  0.30699332288E+02  0.00000000000E+00 0.  1.
</event>
<event>
12    1  0.8297444E-002  0.2200003E+03  0.7818608E-02  0.1134468E+00
         21   -1    0    0  503  502  0.00000000000E+00  0.00000000000E+00  0.40395203098E+03  0.40395203098E+03  0.00000000000E+00 0. -1.
         21   -1    0    0  501  503 -0.00000000000E+00 -0.00000000000E+00 -0.13701082210E+03  0.13701082210E+03  0.00000000000E+00 0. -1.
          6    2    1    2  501    0 -0.13577089717E+03  0.13511793266E+01  0.32234768825E+02  0.21926854318E+03  0.16912732335E+03 0.  0.
         24    2    3    3    0    0 -0.89618053038E+02  0.47970012863E+02 -0.25548739474E+02  0.13172184425E+03  0.79783385492E+02 0.  0.
         -6    2    1    2    0  502  0.13577089717E+03 -0.13511793266E+01  0.23470644005E+03  0.32169430990E+03  0.17310272620E+03 0.  0.
        -24    2    5    5    0    0  0.14503218187E+03  0.14236866668E+02  0.24875387565E+03  0.29828108673E+03  0.76525119424E+02 0.  0.
          5    1    3    3  501    0 -0.46152844133E+02 -0.46618833537E+02  0.57783508299E+02  0.87546698928E+02  0.47000000000E+01 0. -1.
        -11    1    4    4    0    0 -0.38451935392E+02  0.57373926482E+02  0.84377368513E+01  0.69580990065E+02  0.00000000000E+00 0.  1.
         12    1    4    4    0    0 -0.51166117646E+02 -0.94039136184E+01 -0.33986476325E+02  0.62140854188E+02  0.00000000000E+00 0. -1.
         -5    1    5    5    0  502 -0.92612846991E+01 -0.15588045995E+02 -0.14047435598E+02  0.23413223167E+02  0.47000000000E+01 0.  1.
         13    1    6    6    0    0  0.80355569370E+02 -0.91058696009E+01  0.19467094599E+03  0.21080016984E+03  0.00000000000E+00 0. -1.
        -14    1    6    6    0    0  0.64676612501E+02  0.23342736269E+02  0.54082929658E+02  0.87480916899E+02  0.00000000000E+00 0.  1.
</event>
<event>
12    1  0.8297444E-002  0.1896379E+03  0.7818608E-02  0.1161631E+00
         21   -1    0    0  503  502  0.00000000000E+00  0.00000000000E+00  0.45117618297E+02  0.45117618297E+02  0.00000000000E+00 0. -1.
         21   -1    0    0  501  503 -0.00000000000E+00 -0.00000000000E+00 -0.11986860908E+04  0.11986860908E+04  0.00000000000E+00 0.  1.
          6    2    1    2  501    0 -0.77754703671E+02  0.60425472261E+01 -0.97034634662E+03  0.98870347123E+03  0.17285894625E+03 0.  0.
         24    2    3    3    0    0 -0.82327164495E+02  0.52313096909E+02 -0.85525605739E+03  0.86448698342E+03  0.79752107766E+02 0.  0.
         -6    2    1    2    0  502  0.77754703671E+02 -0.60425472261E+01 -0.18322212592E+03  0.25510023791E+03  0.15944741338E+03 0.  0.
        -24    2    5    5    0    0  0.56926435121E+02 -0.37981768158E+02 -0.48665756814E+02  0.11516654979E+03  0.78814621583E+02 0.  0.
          5    1    3    3  501    0  0.45724608242E+01 -0.46270549683E+02 -0.11509028924E+03  0.12421648781E+03  0.47000000000E+01 0. -1.
        -11    1    4    4    0    0 -0.47775763831E+02  0.38890663583E+02 -0.22919666919E+03  0.23733124634E+03  0.00000000000E+00 0.  1.
         12    1    4    4    0    0 -0.34551400665E+02  0.13422433326E+02 -0.62605938820E+03  0.62715573708E+03  0.00000000000E+00 0. -1.
         -5    1    5    5    0  502  0.20828268550E+02  0.31939220932E+02 -0.13455636910E+03  0.13993368812E+03  0.47000000000E+01 0.  1.
         11    1    6    6    0    0  0.56401053711E+02 -0.77369967091E+00 -0.33159080915E+01  0.56503740738E+02  0.00000000000E+00 0. -1.
        -12    1    6    6    0    0  0.52538140981E+00 -0.37208068487E+02 -0.45349848723E+02  0.58662809048E+02  0.00000000000E+00 0.  1.
</event>
<event>
12    1  0.8297444E-002  0.2788231E+03  0.7818608E-02  0.1096582E+00
         21   -1    0    0  501  502  0.00000000000E+00  0.00000000000E+00  0.11081142400E+03  0.11081142400E+03  0.00000000000E+00 0.  1.
         21   -1    0    0  502  503 -0.00000000000E+00 -0.00000000000E+00 -0.69722487853E+03  0.69722487853E+03  0.00000000000E+00 0. -1.
         -6    2    1    2    0  503  0.21568285770E+03 -0.31954962120E+02 -0.29877020108E+03  0.40743553690E+03  0.17087969150E+03 0.  0.
        -24    2    3    3    0    0  0.22609472611E+03 -0.57402299201E+02 -0.28371018833E+03  0.37573588466E+03  0.79196811370E+02 0.  0.
          6    2    1    2  501    0 -0.21568285770E+03  0.31954962120E+02 -0.28764325345E+03  0.40060076563E+03  0.17378756417E+03 0.  0.
         24    2    5    5    0    0 -0.14772212959E+03  0.32806970144E+02 -0.94435147737E+02  0.19573288480E+03  0.80593053073E+02 0.  0.
          5    1    5    5  501    0 -0.67960728102E+02 -0.85200802478E+00 -0.19320810571E+03  0.20486788082E+03  0.47000000000E+01 0. -1.
        -11    1    6    6    0    0 -0.10012253861E+03 -0.17881636760E+02 -0.60750479533E+02  0.11846896823E+03  0.00000000000E+00 0.  1.
         12    1    6    6    0    0 -0.47599590987E+02  0.50688606904E+02 -0.33684668203E+02  0.77263916572E+02  0.00000000000E+00 0. -1.
         -5    1    3    3    0  503 -0.10411868410E+02  0.25447337082E+02 -0.15060012754E+02  0.31699652245E+02  0.47000000000E+01 0.  1.
         11    1    4    4    0    0  0.97329800181E+02  0.14860922195E+02 -0.10557825419E+03  0.14436310044E+03  0.00000000000E+00 0. -1.
        -12    1    4    4    0    0  0.12876492592E+03 -0.72263221397E+02 -0.17813193414E+03  0.23137278421E+03  0.00000000000E+00 0.  1.
</event>
<event>
12    1  0.8297444E-002  0.2997328E+03  0.7818608E-02  0.1085534E+00
         21   -1    0    0  501  502  0.00000000000E+00  0.00000000000E+00  0.19888604573E+03  0.19888604573E+03  0.00000000000E+00 0. -1.
         21   -1    0    0  502  503 -0.00000000000E+00 -0.00000000000E+00 -0.58114473857E+03  0.58114473857E+03  0.00000000000E+00 0. -1.
         -6    2    1    2    0  503  0.14333510119E+03 -0.19948800104E+03 -0.37686220386E+03  0.48152348438E+03  0.17175369434E+03 0.  0.
        -24    2    3    3    0    0  0.51565078950E+02 -0.29343319541E+02 -0.17884655747E+03  0.20475058860E+03  0.80104460815E+02 0.  0.
          6    2    1    2  501    0 -0.14333510119E+03  0.19948800104E+03 -0.53964889813E+01  0.29850729993E+03  0.16952012335E+03 0.  0.
         24    2    5    5    0    0 -0.57042806002E+02  0.35776827580E+02 -0.35330856186E+02  0.11098166204E+03  0.80838090040E+02 0.  0.
          5    1    5    5  501    0 -0.86292295191E+02  0.16371117346E+03  0.29934367205E+02  0.18752563789E+03  0.47000000000E+01 0. -1.
        -11    1    6    6    0    0 -0.44191943862E+02 -0.19363972514E+02 -0.20714459105E+02  0.52506953348E+02  0.00000000000E+00 0.  1.
         12    1    6    6    0    0 -0.12850862140E+02  0.55140800094E+02 -0.14616397081E+02  0.58474708690E+02  0.00000000000E+00 0. -1.
         -5    1    3    3    0  503  0.91770022244E+02 -0.17014468150E+03 -0.19801564638E+03  0.27677289578E+03  0.47000000000E+01 0.  1.
         11    1    4    4    0    0  0.60846528767E+02 -0.78417508201E+01 -0.68545139867E+02  0.91990376227E+02  0.00000000000E+00 0. -1.
        -12    1    4    4    0    0 -0.92814498169E+01 -0.21501568721E+02 -0.11030141761E+03  0.11276021237E+03  0.00000000000E+00 0.  1.
</event>
<event>
12    1  0.8297444E-002  0.1838934E+03  0.7818608E-02  0.1165527E+00
         21   -1    0    0  501  502  0.00000000000E+00  0.00000000000E+00  0.50448379873E+03  0.50448379873E+03  0.00000000000E+00 0. -1.
         21   -1    0    0  502  503 -0.00000000000E+00 -0.00000000000E+00 -0.11067033431E+03  0.11067033431E+03  0.00000000000E+00 0. -1.
         -6    2    1    2    0  503  0.37902238918E+02  0.24409236803E+02 -0.28856488666E+01  0.17790481689E+03  0.17207383981E+03 0.  0.
        -24    2    3    3    0    0  0.75766817426E+02  0.58224947093E+02  0.10637603186E+02  0.12515828227E+03  0.80129157822E+02 0.  0.
          6    2    1    2  501    0 -0.37902238918E+02 -0.24409236803E+02  0.39669911328E+03  0.43724931615E+03  0.17828176418E+03 0.  0.
         24    2    5    5    0    0 -0.91522349366E+02 -0.37110857429E+02  0.30344618582E+03  0.32883047142E+03  0.79349449125E+02 0.  0.
          5    1    5    5  501    0  0.53620110448E+02  0.12701620625E+02  0.93252927465E+02  0.10841884473E+03  0.47000000000E+01 0. -1.
        -13    1    6    6    0    0  0.33061455229E+01 -0.10769168799E+02  0.16420158496E+01  0.11384279112E+02  0.00000000000E+00 0.  1.
         14    1    6    6    0    0 -0.94828494889E+02 -0.26341688629E+02  0.30180416997E+03  0.31744619231E+03  0.00000000000E+00 0. -1.
         -5    1    3    3    0  503 -0.37864578509E+02 -0.33815710290E+02 -0.13523252052E+02  0.52746534617E+02  0.47000000000E+01 0.  1.
         13    1    4    4    0    0  0.59576820827E+02 -0.25575291545E+01  0.16806494549E+02  0.61954796378E+02  0.00000000000E+00 0. -1.
        -14    1    4    4    0    0  0.16189996599E+02  0.60782476248E+02 -0.61688913629E+01  0.63203485896E+02  0.00000000000E+00 0.  1.
</event>
<event>
12    1  0.8297444E-002  0.2251500E+03  0.7818608E-02  0.1130179E+00
         21   -1    0    0  501  502  0.00000000000E+00  0.00000000000E+00  0.86837085588E+03  0.86837085588E+03  0.00000000000E+00 0.  1.
         21   -1    0    0  502  503 -0.00000000000E+00 -0.00000000000E+00 -0.68255892665E+02  0.68255892665E+02  0.00000000000E+00 0. -1.
         -6    2    1    2    0  503 -0.84737427283E+02 -0.11767234608E+03  0.22056188409E+03  0.31487575991E+03  0.17167407158E+03 0.  0.
        -24    2    3    3    0    0 -0.12401880331E+03 -0.10369642281E+03  0.19773652620E+03  0.26711133909E+03  0.78199245518E+02 0.  0.
          6    2    1    2  501    0  0.84737427283E+02  0.11767234608E+03  0.57955307912E+03  0.62175098863E+03  0.17223619750E+03 0.  0.
         24    2    5    5    0    0  0.11585276070E+01 -0.27567787486E+01  0.20863729274E+03  0.22289109197E+03  0.78370765862E+02 0.  0.
          5    1    5    5  501    0  0.83578899676E+02  0.12042912482E+03  0.37091578638E+03  0.39885989666E+03  0.47000000000E+01 0. -1.
        -11    1    6    6    0    0 -0.13266512187E+02  0.27331919858E+02  0.16595828018E+03  0.16871628537E+03  0.00000000000E+00 0.  1.
         12    1    6    6    0    0  0.14425039794E+02 -0.30088698606E+02  0.42679012559E+02  0.54174806598E+02  0.00000000000E+00 0. -1.
         -5    1    3    3    0  503  0.39281376024E+02 -0.13975923264E+02  0.22825357882E+02  0.47764420816E+02  0.47000000000E+01 0.  1.
         11    1    4    4    0    0 -0.10277599351E+03 -0.36461404245E+02  0.11832785908E+03  0.16091557127E+03  0.00000000000E+00 0. -1.
        -12    1    4    4    0    0 -0.21242809794E+02 -0.67235018567E+02  0.79408667125E+02  0.10619576783E+03  0.00000000000E+00 0.  1.
</event>
<event>
12    1  0.8297444E-002  0.2085124E+03  0.7818608E-02  0.1142858E+00
         21   -1    0    0  503  502  0.00000000000E+00  0.00000000000E+00  0.26791121158E+03  0.26791121158E+03  0.00000000000E+00 0. -1.
         21   -1    0    0  501  503 -0.00000000000E+00 -0.00000000000E+00 -0.20682021810E+03  0.20682021810E+03  0.00000000000E+00 0.  1.
          6    2    1    2  501    0  0.28645028310E+02 -0.11277772955E+03 -0.80092484220E+02  0.22336567861E+03  0.17302620155E+03 0.  0.
         24    2    3    3    0    0  0.79931828605E+02 -0.50513464819E+02 -0.69589874886E+02  0.14188212598E+03  0.79668561133E+02 0.  0.
         -6    2    1    2    0  502 -0.28645028310E+02  0.11277772955E+03  0.14118347770E+03  0.25136575107E+03  0.17237346810E+03 0.  0.
        -24    2    5    5    0    0 -0.47396534656E+02  0.19476701613E+02  0.11909277733E+03  0.15355578303E+03  0.82283142174E+02 0.  0.
          5    1    3    3  501    0 -0.51286800295E+02 -0.62264264730E+02 -0.10502609334E+02  0.81483552633E+02  0.47000000000E+01 0. -1.
        -11    1    4    4    0    0  0.28479009170E+02 -0.53785248068E+01 -0.67440713529E+02  0.73404579787E+02  0.00000000000E+00 0.  1.
         12    1    4    4    0    0  0.51452819435E+02 -0.45134940012E+02 -0.21491613572E+01  0.68477546190E+02  0.00000000000E+00 0. -1.
         -5    1    5    5    0  502  0.18751506346E+02  0.93301027936E+02  0.22090700365E+02  0.97809968034E+02  0.47000000000E+01 0.  1.
         13    1    6    6    0    0 -0.17302585402E+01  0.40278803685E+02  0.81258849609E+02  0.90710398857E+02  0.00000000000E+00 0. -1.
        -14    1    6    6    0    0 -0.45666276116E+02 -0.20802102073E+02  0.37833927725E+02  0.62845384174E+02  0.00000000000E+00 0.  1.
</event>
<event>
12    1  0.8297444E-002  0.2108555E+03  0.7818608E-02  0.1141092E+00
         21   -1    0    0  501  502  0.00000000000E+00  0.00000000000E+00  0.44905820750E+03  0.44905820750E+03  0.00000000000E+00 0. -1.
         21   -1    0    0  502  503 -0.00000000000E+00 -0.00000000000E+00 -0.10797481550E+03  0.10797481550E+03  0.00000000000E+00 0. -1.
         -6    2    1    2    0  503 -0.70688070244E+02  0.97897056420E+02  0.25330244645E+03  0.32957876609E+03  0.17285657855E+03 0.  0.
        -24    2    3    3    0    0 -0.74863225623E+02  0.79125455661E+02  0.27129084719E+03  0.30283035532E+03  0.79007341727E+02 0.  0.
          6    2    1    2  501    0  0.70688070244E+02 -0.97897056420E+02  0.87780945550E+02  0.22745425691E+03  0.17160800579E+03 0.  0.
         24    2    5    5    0    0  0.59955805602E+01  0.14525820046E+02  0.29827726727E+02  0.85311065207E+02  0.78366690186E+02 0.  0.
          5    1    5    5  501    0  0.64692489684E+02 -0.11242287647E+03  0.57953218823E+02  0.14214319170E+03  0.47000000000E+01 0. -1.
        -11    1    6    6    0    0  0.38034508977E+02  0.12487550020E+02  0.34527694568E+02  0.52865153654E+02  0.00000000000E+00 0.  1.
         12    1    6    6    0    0 -0.32038928417E+02  0.20382700264E+01 -0.46999678411E+01  0.32445911553E+02  0.00000000000E+00 0. -1.
         -5    1    3    3    0  503  0.41751553787E+01  0.18771600760E+02 -0.17988400744E+02  0.26748410772E+02  0.47000000000E+01 0.  1.
         13    1    4    4    0    0 -0.25362791564E+02  0.26716270514E+02  0.21083466741E+02  0.42444585943E+02  0.00000000000E+00 0. -1.
        -14    1    4    4    0    0 -0.49500434059E+02  0.52409185147E+02  0.25020738045E+03  0.26038576938E+03  0.00000000000E+00 0.  1.
</event>
<event>
12    1  0.8297444E-002  0.2073543E+03  0.7818608E-02  0.1143693E+00
         21   -1    0    0  501  502  0.00000000000E+00  0.00000000000E+00  0.38011527864E+03  0.38011527864E+03  0.00000000000E+00 0. -1.
         21   -1    0    0  502  503 -0.00000000000E+00 -0.00000000000E+00 -0.16292332690E+03  0.16292332690E+03  0.00000000000E+00 0. -1.
         -6    2    1    2    0  503 -0.25007857769E+02  0.11389564293E+03 -0.41608594362E+02  0.21141606414E+03  0.17137055355E+03 0.  0.
        -24    2    3    3    0    0  0.14871686029E+02  0.13551239613E+03 -0.48817543748E+02  0.16524550010E+03  0.79612474995E+02 0.  0.
          6    2    1    2  501    0  0.25007857769E+02 -0.11389564293E+03  0.25880054611E+03  0.33162254140E+03  0.17145896557E+03 0.  0.
         24    2    5    5    0    0  0.55508213635E+02 -0.13638436114E+03  0.22280787548E+03  0.27914800955E+03  0.81230573758E+02 0.  0.
          5    1    5    5  501    0 -0.30500355866E+02  0.22488718212E+02  0.35992670623E+02  0.52474531855E+02  0.47000000000E+01 0. -1.
        -11    1    6    6    0    0  0.30412587357E+02 -0.65334054235E+01  0.72783575551E+02  0.79152130269E+02  0.00000000000E+00 0.  1.
         12    1    6    6    0    0  0.25095626279E+02 -0.12985095571E+03  0.15002429993E+03  0.19999587928E+03  0.00000000000E+00 0. -1.
         -5    1    3    3    0  503 -0.39879543798E+02 -0.21616753204E+02  0.72089493867E+01  0.46170564042E+02  0.47000000000E+01 0.  1.
         11    1    4    4    0    0 -0.24187042439E+02  0.89642023828E+02 -0.95636295379E+01  0.93338997573E+02  0.00000000000E+00 0. -1.
        -12    1    4    4    0    0  0.39058728468E+02  0.45870372302E+02 -0.39253914210E+02  0.71906502526E+02  0.00000000000E+00 0.  1.
</event>
<event>
12    1  0.8297444E-002  0.1762984E+03  0.7818608E-02  0.1171519E+00
         21   -1    0    0  503  502  0.00000000000E+00  0.00000000000E+00  0.16037975888E+03  0.16037975888E+03  0.00000000000E+00 0.  1.
         21   -1    0    0  501  503 -0.00000000000E+00 -0.00000000000E+00 -0.22317770677E+03  0.22317770677E+03  0.00000000000E+00 0.  1.
          6    2    1    2  501    0  0.14352957480E+02  0.35681541257E+02 -0.10144765804E+03  0.20340293086E+03  0.17205215833E+03 0.  0.
         24    2    3    3    0    0 -0.21245338756E+02 -0.43387428088E+02 -0.62086220873E+02  0.10805853751E+03  0.74081815389E+02 0.  0.
         -6    2    1    2    0  502 -0.14352957480E+02 -0.35681541257E+02  0.38649710145E+02  0.18015453479E+03  0.17170520241E+03 0.  0.
        -24    2    5    5    0    0  0.25317384524E+02 -0.32816852566E+02  0.81649832977E+02  0.12139193580E+03  0.79695615197E+02 0.  0.
          5    1    3    3  501    0  0.35598296236E+02  0.79068969345E+02 -0.39361437165E+02  0.95344393353E+02  0.47000000000E+01 0. -1.
        -13    1    4    4    0    0  0.47373667191E+01  0.16690280997E+02 -0.31160605970E+02  0.35664989662E+02  0.00000000000E+00 0.  1.
         14    1    4    4    0    0 -0.25982705475E+02 -0.60077709085E+02 -0.30925614903E+02  0.72393547846E+02  0.00000000000E+00 0. -1.
         -5    1    5    5    0  502 -0.39670342004E+02 -0.28646886917E+01 -0.43000122832E+02  0.58762598986E+02  0.47000000000E+01 0.  1.
         11    1    6    6    0    0  0.27729788506E+02  0.21727506493E+02  0.31503331835E+02  0.47259767517E+02  0.00000000000E+00 0. -1.
        -12    1    6    6    0    0 -0.24124039822E+01 -0.54544359059E+02  0.50146501141E+02  0.74132168287E+02  0.00000000000E+00 0.  1.
</event>
<event>
12    1  0.8297444E-002  0.1886299E+03  0.7818608E-02  0.1161757E+00
         21   -1    0    0  501  502  0.00000000000E+00  0.00000000000E+00  0.18363397883E+03  0.18363397883E+03  0.00000000000E+00 0.  1.
         21   -1    0    0  502  503 -0.00000000000E+00 -0.00000000000E+00 -0.18999372559E+03  0.18999372559E+03  0.00000000000E+00 0.  1.
         -6    2    1    2    0  503  0.21274027277E+02 -0.46729957465E+02  0.27533005633E+02  0.19062869500E+03  0.18150746485E+03 0.  0.
        -24    2    3    3    0    0 -0.26473836193E+02 -0.48879223017E+02 -0.41726154529E+02  0.10634702988E+03  0.80489603968E+02 0.  0.
          6    2    1    2  501    0 -0.21274027277E+02  0.46729957465E+02 -0.33892752389E+02  0.18299900943E+03  0.17234745610E+03 0.  0.
         24    2    5    5    0    0  0.42240261464E+02  0.76750857177E+01  0.19778231995E+02  0.91009811983E+02  0.77771850865E+02 0.  0.
          5    1    5    5  501    0 -0.63514288741E+02  0.39054871747E+02 -0.53670984384E+02  0.91989197443E+02  0.47000000000E+01 0. -1.
        -11    1    6    6    0    0  0.56244260890E+02 -0.99828391633E+01 -0.52092042549E+01  0.57360350154E+02  0.00000000000E+00 0.  1.
         12    1    6    6    0    0 -0.14003999426E+02  0.17657924881E+02  0.24987436250E+02  0.33649461829E+02  0.00000000000E+00 0. -1.
         -5    1    3    3    0  503  0.47747863470E+02  0.21492655520E+01  0.69259160162E+02  0.84281665116E+02  0.47000000000E+01 0.  1.
         13    1    4    4    0    0  0.26820950116E+02 -0.16163570420E+02 -0.28683788256E+02  0.42466269940E+02  0.00000000000E+00 0. -1.
        -14    1    4    4    0    0 -0.53294786309E+02 -0.32715652596E+02 -0.13042366273E+02  0.63880759940E+02  0.00000000000E+00 0.  1.
</event>
<event>
12    1  0.8297444E-002  0.2224185E+03  0.7818608E-02  0.1132730E+00
         21   -1    0    0  501  502  0.00000000000E+00  0.00000000000E+00  0.20386556638E+03  0.20386556638E+03  0.00000000000E+00 0. -1.
         21   -1    0    0  502  503 -0.00000000000E+00 -0.00000000000E+00 -0.24226834365E+03  0.24226834365E+03  0.00000000000E+00 0. -1.
         -6    2    1    2    0  503  0.13466501045E+03  0.29438176431E+01  0.68655159829E+01  0.22252447586E+03  0.17699343475E+03 0.  0.
        -24    2    3    3    0    0  0.38050963697E+02 -0.51498125001E+02  0.33307798383E+02  0.10842152477E+03  0.80906643012E+02 0.  0.
          6    2    1    2  501    0 -0.13466501045E+03 -0.29438176431E+01 -0.45268293249E+02  0.22360943417E+03  0.17265175810E+03 0.  0.
         24    2    5    5    0    0 -0.44188240656E+02 -0.55674421244E+02 -0.51501803354E+02  0.11859748687E+03  0.79753911186E+02 0.  0.
          5    1    5    5  501    0 -0.90476769796E+02  0.52730603601E+02  0.62335101051E+01  0.10501194731E+03  0.47000000000E+01 0. -1.
        -11    1    6    6    0    0 -0.65333159204E+02 -0.54544239118E+02 -0.36279189721E+02  0.92518513387E+02  0.00000000000E+00 0.  1.
         12    1    6    6    0    0  0.21144918547E+02 -0.11301821264E+01 -0.15222613632E+02  0.26078973481E+02  0.00000000000E+00 0. -1.
         -5    1    3    3    0  503  0.96614046755E+02  0.54441942644E+02 -0.26442282400E+02  0.11410295109E+03  0.47000000000E+01 0.  1.
         11    1    4    4    0    0  0.58259537237E+02 -0.14623963741E+02  0.11889928720E+02  0.61232380319E+02  0.00000000000E+00 0. -1.
        -12    1    4    4    0    0 -0.20208573540E+02 -0.36874161260E+02  0.21417869663E+02  0.47189144451E+02  0.00000000000E+00 0.  1.
</event>
<event>
12    1  0.8297444E-002  0.2047609E+03  0.7818608E-02  0.1147780E+00
         21   -1    0    0  503  502  0.00000000000E+00  0.00000000000E+00  0.35420718265E+03  0.35420718265E+03  0.00000000000E+00 0. -1.
         21   -1    0    0  501  503 -0.00000000000E+00 -0.00000000000E+00 -0.13375774299E+03  0.13375774299E+03  0.00000000000E+00 0.  1.
          6    2    1    2  501    0  0.47748453216E+02 -0.75982370892E+02  0.16188944318E+02  0.20539983688E+03  0.18404829692E+03 0.  0.
         24    2    3    3    0    0  0.28329423060E+02 -0.12454229002E+03  0.24243360672E+02  0.15227613124E+03  0.79290235166E+02 0.  0.
         -6    2    1    2    0  502 -0.47748453216E+02  0.75982370892E+02  0.20426049534E+03  0.28256508876E+03  0.17339966539E+03 0.  0.
        -24    2    5    5    0    0 -0.32305906149E+02  0.42898733465E+02  0.26682820446E+02  0.10121206302E+03  0.81534875287E+02 0.  0.
          5    1    3    3  501    0  0.19419030156E+02  0.48559919130E+02 -0.80544163536E+01  0.53123705640E+02  0.47000000000E+01 0. -1.
        -11    1    4    4    0    0  0.15090747673E+02 -0.64091898686E+02  0.52533251443E+02  0.84233275193E+02  0.00000000000E+00 0.  1.
         12    1    4    4    0    0  0.13238675387E+02 -0.60450391337E+02 -0.28289890771E+02  0.68042856044E+02  0.00000000000E+00 0. -1.
         -5    1    5    5    0  502 -0.15442547067E+02  0.33083637427E+02  0.17757767489E+03  0.18135302574E+03  0.47000000000E+01 0.  1.
         13    1    6    6    0    0 -0.26454295617E+02  0.64772679352E+02  0.33488767127E+02  0.77568210439E+02  0.00000000000E+00 0. -1.
        -14    1    6    6    0    0 -0.58516105323E+01 -0.21873945887E+02 -0.68059466816E+01  0.23643852578E+02  0.00000000000E+00 0.  1.
</event>
<event>
12    1  0.8297444E-002  0.1800865E+03  0.7818608E-02  0.1168073E+00
         21   -1    0    0  501  502  0.00000000000E+00  0.00000000000E+00  0.40952562771E+03  0.40952562771E+03  0.00000000000E+00 0. -1.
         21   -1    0    0  502  503 -0.00000000000E+00 -0.00000000000E+00 -0.31136409810E+03  0.31136409810E+03  0.00000000000E+00 0. -1.
         -6    2    1    2    0  503 -0.39356373310E+02  0.28230387746E+02 -0.26254625895E+03  0.31837350521E+03  0.17345106463E+03 0.  0.
        -24    2    3    3    0    0 -0.77474963516E+02 -0.68456990546E+01 -0.23389810060E+03  0.25899197811E+03  0.79493960105E+02 0.  0.
          6    2    1    2  501    0  0.39356373310E+02 -0.28230387746E+02  0.36070778856E+03  0.40251622060E+03  0.17193987381E+03 0.  0.
         24    2    5    5    0    0  0.55969058431E+02  0.27620819496E+02  0.13857123439E+03  0.17281624813E+03  0.82267997690E+02 0.  0.
          5    1    5    5  501    0 -0.16612685121E+02 -0.55851207243E+02  0.22213655417E+03  0.22969997248E+03  0.47000000000E+01 0. -1.
        -13    1    6    6    0    0  0.69173796367E+02 -0.57148720492E+00  0.74997082885E+02  0.10202893287E+03  0.00000000000E+00 0.  1.
         14    1    6    6    0    0 -0.13204737936E+02  0.28192306701E+02  0.63574151509E+02  0.70787315256E+02  0.00000000000E+00 0. -1.
         -5    1    3    3    0  503  0.38118590206E+02  0.35076086801E+02 -0.28648158350E+02  0.59381527106E+02  0.47000000000E+01 0.  1.
         13    1    4    4    0    0 -0.94482994124E+01 -0.24899756434E+02 -0.13502855938E+03  0.13762986624E+03  0.00000000000E+00 0. -1.
        -14    1    4    4    0    0 -0.68026664103E+02  0.18054057379E+02 -0.98869541220E+02  0.12136211187E+03  0.00000000000E+00 0.  1.
</event>
<event>
12    1  0.8297444E-002  0.1851795E+03  0.7818608E-02  0.1165461E+00
         21   -1    0    0  503  502  0.00000000000E+00  0.00000000000E+00  0.20033537423E+04  0.20033537423E+04  0.00000000000E+00 0. -1.
         21   -1    0    0  501  503 -0.00000000000E+00 -0.00000000000E+00 -0.21557106489E+02  0.21557106489E+02  0.00000000000E+00 0. -1.
          6    2    1    2  501    0  0.99664296161E+01  0.29382535302E+02  0.50568509049E+03  0.53852469362E+03  0.18256169311E+03 0.  0.
         24    2    3    3    0    0 -0.13445111359E+02 -0.39049793629E+02  0.14583017755E+03  0.17144332353E+03  0.80129364771E+02 0.  0.
         -6    2    1    2    0  502 -0.99664296161E+01 -0.29382535302E+02  0.14761115454E+04  0.14863861552E+04  0.17168530793E+03 0.  0.
        -24    2    5    5    0    0  0.56501133886E+02  0.42297618642E+01  0.95135552717E+03  0.95634965444E+03  0.79479893450E+02 0.  0.
          5    1    3    3  501    0  0.23411540975E+02  0.68432328931E+02  0.35985491295E+03  0.36708137009E+03  0.47000000000E+01 0. -1.
        -11    1    4    4    0    0 -0.25800448542E+02 -0.42520774391E+00  0.12137488681E+03  0.12408749774E+03  0.00000000000E+00 0.  1.
         12    1    4    4    0    0  0.12355337183E+02 -0.38624585885E+02  0.24455290737E+02  0.47355825795E+02  0.00000000000E+00 0. -1.
         -5    1    5    5    0  502 -0.66467563502E+02 -0.33612297167E+02  0.52475601819E+03  0.53003650077E+03  0.47000000000E+01 0.  1.
         13    1    6    6    0    0  0.31737494101E+02 -0.70575255995E+01  0.86912029556E+03  0.86972821350E+03  0.00000000000E+00 0. -1.
        -14    1    6    6    0    0  0.24763639785E+02  0.11287287464E+02  0.82235231605E+02  0.86621440942E+02  0.00000000000E+00 0.  1.
</event>
<event>
12    1  0.8297444E-002  0.2244375E+03  0.7818608E-02  0.1130693E+00
         21   -1    0    0  501  502  0.00000000000E+00  0.00000000000E+00  0.63936124707E+03  0.63936124707E+03  0.00000000000E+00 0.  1.
         21   -1    0    0  502  503 -0.00000000000E+00 -0.00000000000E+00 -0.78685100538E+02  0.78685100538E+02  0.00000000000E+00 0.  1.
         -6    2    1    2    0  503  0.97963921307E+02  0.10491834081E+03  0.27138457100E+03  0.35190185563E+03  0.17198994883E+03 0.  0.
        -24    2    3    3    0    0 -0.10377336707E+02  0.20595241498E+02  0.13235105975E+03  0.15645206535E+03  0.80178504892E+02 0.  0.
          6    2    1    2  501    0 -0.97963921307E+02 -0.10491834081E+03  0.28929157552E+03  0.36614449198E+03  0.17253227298E+03 0.  0.
         24    2    5    5    0    0 -0.13035704770E+03 -0.50641046870E+02  0.20095003106E+03  0.25741704488E+03  0.79530777036E+02 0.  0.
          5    1    5    5  501    0  0.32393126395E+02 -0.54277293942E+02  0.88341544463E+02  0.10872744710E+03  0.47000000000E+01 0.  1.
        -13    1    6    6    0    0 -0.76325300615E+02  0.12308852328E+02  0.10815939560E+03  0.13294929190E+03  0.00000000000E+00 0.  1.
         14    1    6    6    0    0 -0.54031747086E+02 -0.62949899198E+02  0.92790635462E+02  0.12446775298E+03  0.00000000000E+00 0. -1.
         -5    1    3    3    0  503  0.10834125801E+03  0.84323099314E+02  0.13903351125E+03  0.19544979027E+03  0.47000000000E+01 0.  1.
         13    1    4    4    0    0 -0.14600742915E+02 -0.29609213342E+02  0.54590745448E+02  0.63796839239E+02  0.00000000000E+00 0. -1.
        -14    1    4    4    0    0  0.42234062076E+01  0.50204454839E+02  0.77760314304E+02  0.92655226114E+02  0.00000000000E+00 0.  1.
</event>
<event>
12    1  0.8297444E-002  0.1772787E+03  0.7818608E-02  0.1174013E+00
         21   -1    0    0  503  502  0.00000000000E+00  0.00000000000E+00  0.25803400336E+03  0.25803400336E+03  0.00000000000E+00 0. -1.
         21   -1    0    0  501  503 -0.00000000000E+00 -0.00000000000E+00 -0.43939688280E+03  0.43939688280E+03  0.00000000000E+00 0. -1.
          6    2    1    2  501    0 -0.41595083527E+02  0.11580348850E+02 -0.39045148256E+03  0.42330354696E+03  0.15769995937E+03 0.  0.
         24    2    3    3    0    0  0.81353195421E+01 -0.38540955663E+02 -0.17907264455E+03  0.20039468371E+03  0.80866733259E+02 0.  0.
         -6    2    1    2    0  502  0.41595083527E+02 -0.11580348850E+02  0.20908860311E+03  0.27412733920E+03  0.17194039284E+03 0.  0.
        -24    2    5    5    0    0  0.88675055588E+02  0.18526909202E+02  0.14094735902E+03  0.18587605081E+03  0.80481279808E+02 0.  0.
          5    1    3    3  501    0 -0.49730403069E+02  0.50121304513E+02 -0.21137883801E+03  0.22290886325E+03  0.47000000000E+01 0. -1.
        -13    1    4    4    0    0 -0.25528760216E+02  0.87871649383E+01 -0.29749703146E+02  0.40174328907E+02  0.00000000000E+00 0.  1.
         14    1    4    4    0    0  0.33664079758E+02 -0.47328120601E+02 -0.14932294140E+03  0.16022035481E+03  0.00000000000E+00 0. -1.
         -5    1    5    5    0  502 -0.47079972061E+02 -0.30107258052E+02  0.68141244090E+02  0.88251288392E+02  0.47000000000E+01 0.  1.
         13    1    6    6    0    0  0.61954351938E+02 -0.24036977864E+02  0.10432252927E+03  0.12369037207E+03  0.00000000000E+00 0. -1.
        -14    1    6    6    0    0  0.26720703650E+02  0.42563887066E+02  0.36624829751E+02  0.62185678737E+02  0.00000000000E+00 0.  1.
</event>
<event>
12    1  0.8297444E-002  0.1741294E+03  0.7818608E-02  0.1173681E+00
         21   -1    0    0  501  502  0.00000000000E+00  0.00000000000E+00  0.53929718233E+03  0.53929718233E+03  0.00000000000E+00 0.  1.
         21   -1    0    0  502  503 -0.00000000000E+00 -0.00000000000E+00 -0.60558475960E+02  0.60558475960E+02  0.00000000000E+00 0.  1.
         -6    2    1    2    0  503 -0.32178658409E+02  0.92752756221E+01  0.32064783071E+03  0.36487816036E+03  0.17087873997E+03 0.  0.
        -24    2    3    3    0    0 -0.21752326560E+02 -0.32877892906E+02  0.78758304950E+02  0.11907695881E+03  0.80139453250E+02 0.  0.
          6    2    1    2  501    0  0.32178658409E+02 -0.92752756221E+01  0.15809087566E+03  0.23497749793E+03  0.17058781543E+03 0.  0.
         24    2    5    5    0    0  0.84606400699E+02  0.11858288548E+02  0.10687925079E+03  0.15855749912E+03  0.80115193515E+02 0.  0.
          5    1    5    5  501    0 -0.52427742290E+02 -0.21133564170E+02  0.51211624872E+02  0.76419998811E+02  0.47000000000E+01 0. -1.
        -13    1    6    6    0    0  0.70441053466E+02 -0.24102002825E+02  0.49604841933E+02  0.89462220500E+02  0.00000000000E+00 0.  1.
         14    1    6    6    0    0  0.14165347232E+02  0.35960291373E+02  0.57274408858E+02  0.69095278622E+02  0.00000000000E+00 0. -1.
         -5    1    3    3    0  503 -0.10426331849E+02  0.42153168528E+02  0.24188952576E+03  0.24580120155E+03  0.47000000000E+01 0.  1.
         11    1    4    4    0    0  0.20103003383E+02 -0.17498280574E+01 -0.46438886025E+01  0.20706480739E+02  0.00000000000E+00 0. -1.
        -12    1    4    4    0    0 -0.41855329942E+02 -0.31128064849E+02  0.83402193553E+02  0.98370478067E+02  0.00000000000E+00 0.  1.
</event>
<event>
12    1  0.8297444E-002  0.1883990E+03  0.7818608E-02  0.1160483E+00
         21   -1    0    0  501  502  0.00000000000E+00  0.00000000000E+00  0.45744151394E+02  0.45744151394E+02  0.00000000000E+00 0.  1.
         21   -1    0    0  502  503 -0.00000000000E+00 -0.00000000000E+00 -0.95630966364E+03  0.95630966364E+03  0.00000000000E+00 0.  1.
         -6    2    1    2    0  503  0.67587955338E+02  0.31718638691E+02 -0.67651925045E+03  0.70160106745E+03  0.17026907494E+03 0.  0.
        -24    2    3    3    0    0  0.16335011485E+02  0.31581074138E+02 -0.61819282594E+03  0.62381324724E+03  0.75606881602E+02 0.  0.
          6    2    1    2  501    0 -0.67587955338E+02 -0.31718638691E+02 -0.23404626180E+03  0.30045274758E+03  0.17297397816E+03 0.  0.
         24    2    5    5    0    0 -0.42791838729E+01  0.35744924374E+02 -0.55504953378E+02  0.99309958252E+02  0.74065220755E+02 0.  0.
          5    1    5    5  501    0 -0.63308771465E+02 -0.67463563065E+02 -0.17854130842E+03  0.20114278933E+03  0.47000000000E+01 0. -1.
        -11    1    6    6    0    0 -0.29354111372E+02 -0.33206712093E+01 -0.41274683725E+02  0.50757169231E+02  0.00000000000E+00 0.  1.
         12    1    6    6    0    0  0.25074927499E+02  0.39065595583E+02 -0.14230269652E+02  0.48552789021E+02  0.00000000000E+00 0. -1.
         -5    1    3    3    0  503  0.51252943853E+02  0.13756455330E+00 -0.58326424504E+02  0.77787820210E+02  0.47000000000E+01 0.  1.
         13    1    4    4    0    0 -0.29587811410E+02  0.11823229805E+02 -0.18237266990E+03  0.18513513463E+03  0.00000000000E+00 0. -1.
        -14    1    4    4    0    0  0.45922822895E+02  0.19757844333E+02 -0.43582015604E+03  0.43867811261E+03  0.00000000000E+00 0.  1.
</event>
<event>
12    1  0.8297444E-002  0.2256222E+03  0.7818608E-02  0.1129934E+00
         21   -1    0    0  503  502  0.00000000000E+00  0.00000000000E+00  0.14078061142E+03  0.14078061142E+03  0.00000000000E+00 0. -1.
         21   -1    0    0  501  503 -0.00000000000E+00 -0.00000000000E+00 -0.36700198091E+03  0.36700198091E+03  0.00000000000E+00 0. -1.
          6    2    1    2  501    0 -0.14544613331E+03  0.27428976657E+01 -0.14781699689E+03  0.26892569661E+03  0.17119890346E+03 0.  0.
         24    2    3    3    0    0 -0.37101280513E+02  0.52707536882E+02 -0.89619751230E+02  0.13609466973E+03  0.79595664825E+02 0.  0.
         -6    2    1    2    0  502  0.14544613331E+03 -0.27428976657E+01 -0.78404372599E+02  0.23885689572E+03  0.17246237215E+03 0.  0.
        -24    2    5    5    0    0  0.14349609723E+03  0.21759343795E+02 -0.85850214053E+01  0.16468820773E+03  0.77355699264E+02 0.  0.
          5    1    3    3  501    0 -0.10834485279E+03 -0.49964639216E+02 -0.58197245659E+02  0.13283102688E+03  0.47000000000E+01 0. -1.
        -13    1    4    4    0    0 -0.60560557833E+01 -0.19926053980E+02 -0.74583919226E+01  0.22121280455E+02  0.00000000000E+00 0.  1.
         14    1    4    4    0    0 -0.31045224730E+02  0.72633590862E+02 -0.82161359307E+02  0.11397338928E+03  0.00000000000E+00 0. -1.
         -5    1    5    5    0  502  0.19500360728E+01 -0.24502241461E+02 -0.69819351194E+02  0.74168687992E+02  0.47000000000E+01 0.  1.
         11    1    6    6    0    0  0.67150852614E+02  0.25903274292E+02  0.31262259256E+02  0.78470029181E+02  0.00000000000E+00 0. -1.
        -12    1    6    6    0    0  0.76345244618E+02 -0.41439304963E+01 -0.39847280662E+02  0.86218178547E+02  0.00000000000E+00 0.  1.
</event>
<event>
12    1  0.8297444E-002  0.2085136E+03  0.7818608E-02  0.1143328E+00
         21   -1    0    0  503  502  0.00000000000E+00  0.00000000000E+00  0.42147262435E+03  0.42147262435E+03  0.00000000000E+00 0. -1.
         21   -1    0    0  501  503 -0.00000000000E+00 -0.00000000000E+00 -0.22393498928E+03  0.22393498928E+03  0.00000000000E+00 0.  1.
          6    2    1    2  501    0  0.84646975386E+02  0.75877425934E+02 -0.13992366445E+03  0.24872377239E+03  0.17135457061E+03 0.  0.
         24    2    3    3    0    0  0.42757570322E+01  0.31093452701E+02 -0.13642679516E+03  0.15653128304E+03  0.70033472225E+02 0.  0.
         -6    2    1    2    0  502 -0.84646975386E+02 -0.75877425934E+02  0.33746129952E+03  0.39668384125E+03  0.17480116425E+03 0.  0.
        -24    2    5    5    0    0  0.19443878013E+02 -0.39558188617E+02  0.92918646285E+02  0.12839818749E+03  0.76872004295E+02 0.  0.
          5    1    3    3  501    0  0.80371218354E+02  0.44783973233E+02 -0.34968692924E+01  0.92192489352E+02  0.47000000000E+01 0. -1.
        -13    1    4    4    0    0  0.18572129919E+01 -0.22113850130E+02 -0.27990589417E+02  0.35720368190E+02  0.00000000000E+00 0.  1.
         14    1    4    4    0    0  0.24185440403E+01  0.53207302832E+02 -0.10843620574E+03  0.12081091485E+03  0.00000000000E+00 0. -1.
         -5    1    5    5    0  502 -0.10409085340E+03 -0.36319237317E+02  0.24454265324E+03  0.26828565376E+03  0.47000000000E+01 0.  1.
         13    1    6    6    0    0  0.25258021845E+00  0.48644951349E+01  0.77438484359E+02  0.77591532847E+02  0.00000000000E+00 0. -1.
        -14    1    6    6    0    0  0.19191297794E+02 -0.44422683752E+02  0.15480161926E+02  0.50806654643E+02  0.00000000000E+00 0.  1.
</event>
<event>
12    1  0.8297444E-002  0.2285230E+03  0.7818608E-02  0.1127718E+00
         21   -1    0    0  501  502  0.00000000000E+00  0.00000000000E+00  0.17963486474E+04  0.17963486474E+04  0.00000000000E+00 0. -1.
         21   -1    0    0  502  503 -0.00000000000E+00 -0.00000000000E+00 -0.39102336270E+02  0.39102336270E+02  0.00000000000E+00 0.  1.
         -6    2    1    2    0  503  0.93158119989E+02 -0.11756154108E+03  0.41295940746E+03  0.47187845191E+03  0.17214717513E+03 0.  0.
        -24    2    3    3    0    0 -0.49456061203E+01 -0.93845500247E+01  0.15266677437E+03  0.17338063398E+03  0.81493382812E+02 0.  0.
          6    2    1    2  501    0 -0.93158119989E+02  0.11756154108E+03  0.13442869037E+04  0.13635725318E+04  0.17240539068E+03 0.  0.
         24    2    5    5    0    0 -0.63306805892E+02  0.12542650651E+03  0.69424006587E+03  0.71277614273E+03  0.79630398633E+02 0.  0.
          5    1    5    5  501    0 -0.29851314097E+02 -0.78649654317E+01  0.65004683783E+03  0.65079638905E+03  0.47000000000E+01 0. -1.
        -11    1    6    6    0    0 -0.43358052112E+02  0.14004055764E+02  0.14488580618E+03  0.15188130594E+03  0.00000000000E+00 0.  1.
         12    1    6    6    0    0 -0.19948753780E+02  0.11142245075E+03  0.54935425969E+03  0.56089483680E+03  0.00000000000E+00 0. -1.
         -5    1    3    3    0  503  0.98103726109E+02 -0.10817699105E+03  0.26029263309E+03  0.29849781793E+03  0.47000000000E+01 0.  1.
         13    1    4    4    0    0 -0.11082107593E+02 -0.36542085496E+02  0.13525563381E+03  0.14054260421E+03  0.00000000000E+00 0. -1.
        -14    1    4    4    0    0  0.61365014728E+01  0.27157535471E+02  0.17411140560E+02  0.32838029764E+02  0.00000000000E+00 0.  1.
</event>
<event>
12    1  0.8297444E-002  0.2041690E+03  0.7818608E-02  0.1146323E+00
         21   -1    0    0  501  502  0.00000000000E+00  0.00000000000E+00  0.19503746930E+03  0.19503746930E+03  0.00000000000E+00 0.  1.
         21   -1    0    0  502  503 -0.00000000000E+00 -0.00000000000E+00 -0.34338119497E+03  0.34338119497E+03  0.00000000000E+00 0. -1.
         -6    2    1    2    0  503 -0.10294585985E+03  0.37690209385E+02 -0.23980052328E+03  0.31494328819E+03  0.17223989627E+03 0.  0.
        -24    2    3    3    0    0 -0.55540481759E+02 -0.42085449558E+01 -0.42279433259E+02  0.10748378253E+03  0.81625707132E+02 0.  0.
          6    2    1    2  501    0  0.10294585985E+03 -0.37690209385E+02  0.91456797601E+02  0.22347537608E+03  0.17192584432E+03 0.  0.
         24    2    5    5    0    0  0.94320230632E+02  0.27255646130E+02  0.94437465058E+02  0.15772326580E+03  0.79492248773E+02 0.  0.
          5    1    5    5  501    0  0.86256292154E+01 -0.64945855516E+02 -0.29806674577E+01  0.65752110282E+02  0.47000000000E+01 0. -1.
        -13    1    6    6    0    0  0.99659077860E+02  0.82738909583E+01  0.95089505663E+02  0.13799421422E+03  0.00000000000E+00 0.  1.
         14    1    6    6    0    0 -0.53388472284E+01  0.18981755172E+02 -0.65204060461E+00  0.19729051576E+02  0.00000000000E+00 0. -1.
         -5    1    3    3    0  503 -0.47405378088E+02  0.41898754341E+02 -0.19752109002E+03  0.20745950566E+03  0.47000000000E+01 0.  1.
         11    1    4    4    0    0 -0.13340094290E+02  0.17673489993E+02 -0.54137480379E+02  0.58490829588E+02  0.00000000000E+00 0. -1.
        -12    1    4    4    0    0 -0.42200387470E+02 -0.21882034949E+02  0.11858047120E+02  0.48992952938E+02  0.00000000000E+00 0.  1.
</event>
<event>
12    1  0.8297444E-002  0.2495560E+03  0.7818608E-02  0.1113611E+00
         21   -1    0    0  503  502  0.00000000000E+00  0.00000000000E+00  0.85712204583E+02  0.85712204583E+02  0.00000000000E+00 0.  1.
         21   -1    0    0  501  503 -0.00000000000E+00 -0.00000000000E+00 -0.92780690234E+03  0.92780690234E+03  0.00000000000E+00 0. -1.
          6    2    1    2  501    0  0.17940342814E+03  0.16798077498E+02 -0.65720731984E+03  0.70293655981E+03  0.17242557940E+03 0.  0.
         24    2    3    3    0    0  0.61617784866E+02 -0.11422507244E+02 -0.46140162352E+03  0.47265017316E+03  0.81114135148E+02 0.  0.
         -6    2    1    2    0  502 -0.17940342814E+03 -0.16798077498E+02 -0.18488737791E+03  0.31058254711E+03  0.17265691594E+03 0.  0.
        -24    2    5    5    0    0 -0.10730498134E+03 -0.64583260995E+02 -0.16341817699E+03  0.22133779163E+03  0.81237680980E+02 0.  0.
          5    1    3    3  501    0  0.11778564327E+03  0.28220584742E+02 -0.19580569632E+03  0.23028638665E+03  0.47000000000E+01 0. -1.
        -13    1    4    4    0    0  0.42938027661E+02  0.27148655299E+02 -0.15129143360E+03  0.15959267397E+03  0.00000000000E+00 0.  1.
         14    1    4    4    0    0  0.18679757205E+02 -0.38571162543E+02 -0.31011018992E+03  0.31305749920E+03  0.00000000000E+00 0. -1.
         -5    1    5    5    0  502 -0.72098446795E+02  0.47785183497E+02 -0.21469200924E+02  0.89244755479E+02  0.47000000000E+01 0.  1.
         11    1    6    6    0    0  0.13046526975E+02 -0.18306627567E+01 -0.10304978967E+02  0.16725901582E+02  0.00000000000E+00 0. -1.
        -12    1    6    6    0    0 -0.12035150832E+03 -0.62752598239E+02 -0.15311319802E+03  0.20461189005E+03  0.00000000000E+00 0.  1.
</event>
<event>
12    1  0.8297444E-002  0.2165230E+03  0.7818608E-02  0.1138332E+00
         21   -1    0    0  501  502  0.00000000000E+00  0.00000000000E+00  0.20619020770E+03  0.20619020770E+03  0.00000000000E+00 0. -1.
         21   -1    0    0  502  503 -0.00000000000E+00 -0.00000000000E+00 -0.26175390252E+03  0.26175390252E+03  0.00000000000E+00 0. -1.
         -6    2    1    2    0  503 -0.87733014170E+01 -0.11537755448E+03 -0.12332634826E+03  0.24106527351E+03  0.17179676081E+03 0.  0.
        -24    2    3    3    0    0 -0.46898791494E+02 -0.68438898799E+02 -0.13747511766E+03  0.17878310860E+03  0.78616871169E+02 0.  0.
          6    2    1    2  501    0  0.87733014170E+01  0.11537755448E+03  0.67762653436E+02  0.22687883671E+03  0.18301168938E+03 0.  0.
         24    2    5    5    0    0 -0.23768866647E+02  0.98322913108E+02 -0.20140858965E+02  0.13149031021E+03  0.81557913263E+02 0.  0.
          5    1    5    5  501    0  0.32542168064E+02  0.17054641374E+02  0.87903512401E+02  0.95388526496E+02  0.47000000000E+01 0. -1.
        -11    1    6    6    0    0 -0.51338433313E+02  0.59759099865E+02  0.27853231097E+01  0.78832371374E+02  0.00000000000E+00 0.  1.
         12    1    6    6    0    0  0.27569566666E+02  0.38563813243E+02 -0.22926182075E+02  0.52657938837E+02  0.00000000000E+00 0. -1.
         -5    1    3    3    0  503  0.38125490077E+02 -0.46938655683E+02  0.14148769403E+02  0.62282164915E+02  0.47000000000E+01 0.  1.
         11    1    4    4    0    0 -0.25920589452E+02  0.74688856353E+01 -0.96576639373E+01  0.28651905398E+02  0.00000000000E+00 0. -1.
        -12    1    4    4    0    0 -0.20978202041E+02 -0.75907784434E+02 -0.12781745372E+03  0.15013120320E+03  0.00000000000E+00 0.  1.
</event>
<event>
12    1  0.8297444E-002  0.1987488E+03  0.7818608E-02  0.1150907E+00
         21   -1    0    0  501  502  0.00000000000E+00  0.00000000000E+00  0.14890429060E+03  0.14890429060E+03  0.00000000000E+00 0. -1.
         21   -1    0    0  502  503 -0.00000000000E+00 -0.00000000000E+00 -0.61811928874E+03  0.61811928874E+03  0.00000000000E+00 0. -1.
         -6    2    1    2    0  503 -0.86077309823E+02  0.45498595553E+02 -0.52476844201E+03  0.56114437567E+03  0.17326761715E+03 0.  0.
        -24    2    3    3    0    0 -0.91468889525E+01  0.45779115006E+02 -0.13564243369E+03  0.16445872090E+03  0.80426414288E+02 0.  0.
          6    2    1    2  501    0  0.86077309823E+02 -0.45498595553E+02  0.55553443863E+02  0.20587920367E+03  0.17268652500E+03 0.  0.
         24    2    5    5    0    0  0.22609651220E+02 -0.88106989868E+02  0.20531045686E+02  0.12166354403E+03  0.78143816881E+02 0.  0.
          5    1    5    5  501    0  0.63467658603E+02  0.42608394315E+02  0.35022398177E+02  0.84215659641E+02  0.47000000000E+01 0. -1.
        -13    1    6    6    0    0  0.81176566701E+01 -0.48064314317E+00 -0.21805606300E+02  0.23272555377E+02  0.00000000000E+00 0.  1.
         14    1    6    6    0    0  0.14491994550E+02 -0.87626346725E+02  0.42336651986E+02  0.98390988651E+02  0.00000000000E+00 0. -1.
         -5    1    3    3    0  503 -0.76930420871E+02 -0.28051945313E+00 -0.38912600832E+03  0.39668565477E+03  0.47000000000E+01 0.  1.
         11    1    4    4    0    0 -0.26592948604E+02  0.95721763932E+01 -0.11661534295E+03  0.11999145673E+03  0.00000000000E+00 0. -1.
        -12    1    4    4    0    0  0.17446059651E+02  0.36206938613E+02 -0.19027090739E+02  0.44467264173E+02  0.00000000000E+00 0.  1.
</event>
<event>
12    1  0.8297444E-002  0.2007055E+03  0.7818608E-02  0.1149518E+00
         21   -1    0    0  501  502  0.00000000000E+00  0.00000000000E+00  0.12855529276E+03  0.12855529276E+03  0.00000000000E+00 0.  1.
         21   -1    0    0  502  503 -0.00000000000E+00 -0.00000000000E+00 -0.50605439283E+03  0.50605439283E+03  0.00000000000E+00 0. -1.
         -6    2    1    2    0  503 -0.39419870020E+02 -0.90223064641E+02 -0.38646159129E+03  0.43547130018E+03  0.17489586671E+03 0.  0.
        -24    2    3    3    0    0  0.36536088729E+02 -0.66677718998E+02 -0.15144635841E+03  0.18732227106E+03  0.79830005426E+02 0.  0.
          6    2    1    2  501    0  0.39419870020E+02  0.90223064641E+02  0.89624912151E+01  0.19913838541E+03  0.17286307514E+03 0.  0.
         24    2    5    5    0    0  0.51459659121E+02  0.12671861328E+03 -0.41913512917E+01  0.15824834793E+03  0.79493828230E+02 0.  0.
          5    1    5    5  501    0 -0.12039789101E+02 -0.36495548643E+02  0.13153842507E+02  0.40890037479E+02  0.47000000000E+01 0. -1.
        -11    1    6    6    0    0 -0.18457902013E+02  0.54860963409E+02  0.39018186559E+00  0.57884122993E+02  0.00000000000E+00 0.  1.
         12    1    6    6    0    0  0.69917561134E+02  0.71857649875E+02 -0.45815331573E+01  0.10036422493E+03  0.00000000000E+00 0. -1.
         -5    1    3    3    0  503 -0.75955958749E+02 -0.23545345643E+02 -0.23501523288E+03  0.24814902913E+03  0.47000000000E+01 0.  1.
         13    1    4    4    0    0  0.52251334148E+02 -0.19589104576E+02 -0.10706170571E+03  0.12073170158E+03  0.00000000000E+00 0. -1.
        -14    1    4    4    0    0 -0.15715245419E+02 -0.47088614422E+02 -0.44384652707E+02  0.66590569473E+02  0.00000000000E+00 0.  1.
</event>
<event>
12    1  0.8297444E-002  0.4670129E+03  0.7818608E-02  0.1022799E+00
         21   -1    0    0  503  502  0.00000000000E+00  0.00000000000E+00  0.30723479261E+03  0.30723479261E+03  0.00000000000E+00 0. -1.
         21   -1    0    0  501  503 -0.00000000000E+00 -0.00000000000E+00 -0.90429513547E+03  0.90429513547E+03  0.00000000000E+00 0. -1.
          6    2    1    2  501    0  0.27874918014E+01  0.43340773798E+03 -0.57978680386E+03  0.74419769035E+03  0.17270618676E+03 0.  0.
         24    2    3    3    0    0 -0.87848500561E+01  0.38501678148E+03 -0.41667687709E+03  0.57360301875E+03  0.84176645294E+02 0.  0.
         -6    2    1    2    0  502 -0.27874918014E+01 -0.43340773798E+03 -0.17273539006E+02  0.46733223774E+03  0.17392816858E+03 0.  0.
        -24    2    5    5    0    0  0.17850589547E+02 -0.33795809494E+03  0.45779740920E+02  0.35099492271E+03  0.81039086903E+02 0.  0.
          5    1    3    3  501    0  0.11572341857E+02  0.48390956502E+02 -0.16310992677E+03  0.17059467160E+03  0.47000000000E+01 0. -1.
        -13    1    4    4    0    0  0.20506665916E+02  0.35820103959E+02 -0.66049939451E+02  0.77885799066E+02  0.00000000000E+00 0.  1.
         14    1    4    4    0    0 -0.29291515972E+02  0.34919667752E+03 -0.35062693764E+03  0.49571721969E+03  0.00000000000E+00 0. -1.
         -5    1    5    5    0  502 -0.20638081348E+02 -0.95449643044E+02 -0.63053279925E+02  0.11633731503E+03  0.47000000000E+01 0.  1.
         13    1    6    6    0    0  0.22560672393E+02 -0.22560723445E+02 -0.19808952042E+01  0.31967078800E+02  0.00000000000E+00 0. -1.
        -14    1    6    6    0    0 -0.47100828457E+01 -0.31539737149E+03  0.47760636124E+02  0.31902784391E+03  0.00000000000E+00 0.  1.
</event>
<event>
12    1  0.8297444E-002  0.3658886E+03  0.7818608E-02  0.1056365E+00
         21   -1    0    0  503  502  0.00000000000E+00  0.00000000000E+00  0.44197483707E+03  0.44197483707E+03  0.00000000000E+00 0. -1.
         21   -1    0    0  501  503 -0.00000000000E+00 -0.00000000000E+00 -0.38288192302E+03  0.38288192302E+03  0.00000000000E+00 0. -1.
          6    2    1    2  501    0 -0.27770434634E+03  0.16194317096E+03 -0.15981512401E+03  0.39926848852E+03  0.17472594960E+03 0.  0.
         24    2    3    3    0    0 -0.54300444948E+02  0.28983222905E+02 -0.77384693557E+02  0.12649657499E+03  0.78895038854E+02 0.  0.
         -6    2    1    2    0  502  0.27770434634E+03 -0.16194317096E+03  0.21890803806E+03  0.42558827158E+03  0.17279859137E+03 0.  0.
        -24    2    5    5    0    0  0.12913878473E+03 -0.92746792762E+02  0.38139491178E+02  0.18154068934E+03  0.78889846061E+02 0.  0.
          5    1    3    3  501    0 -0.22340390139E+03  0.13295994806E+03 -0.82430430453E+02  0.27277191353E+03  0.47000000000E+01 0. -1.
        -13    1    4    4    0    0 -0.71377703599E+02  0.13349502331E+02 -0.72935619137E+02  0.10292031054E+03  0.00000000000E+00 0.  1.
         14    1    4    4    0    0  0.17077258652E+02  0.15633720574E+02 -0.44490744206E+01  0.23576264446E+02  0.00000000000E+00 0. -1.
         -5    1    5    5    0  502  0.14856556161E+03 -0.69196378200E+02  0.18076854688E+03  0.24404758223E+03  0.47000000000E+01 0.  1.
         13    1    6    6    0    0  0.10753328758E+03 -0.94309570351E+02  0.55862548979E+02  0.15355236037E+03  0.00000000000E+00 0. -1.
        -14    1    6    6    0    0  0.21605497147E+02  0.15627775890E+01 -0.17723057801E+02  0.27988328971E+02  0.00000000000E+00 0.  1.
</event>
<event>
12    1  0.8297444E-002  0.2789929E+03  0.7818608E-02  0.1096640E+00
         21   -1    0    0  501  502  0.00000000000E+00  0.00000000000E+00  0.45538847557E+03  0.45538847557E+03  0.00000000000E+00 0. -1.
         21   -1    0    0  502  503 -0.00000000000E+00 -0.00000000000E+00 -0.19287260624E+03  0.19287260624E+03  0.00000000000E+00 0. -1.
         -6    2    1    2    0  503  0.72083046369E+02 -0.20373574061E+03  0.24432564991E+03  0.36867582010E+03  0.17182147580E+03 0.  0.
        -24    2    3    3    0    0  0.10060325365E+03 -0.20637139500E+03  0.23417335607E+03  0.33792670683E+03  0.81529940345E+02 0.  0.
          6    2    1    2  501    0 -0.72083046369E+02  0.20373574061E+03  0.18190219425E+02  0.27958526171E+03  0.17644494015E+03 0.  0.
         24    2    5    5    0    0 -0.96881441768E+02  0.13292092442E+03 -0.36437951384E+02  0.18665504244E+03  0.80364137893E+02 0.  0.
          5    1    5    5  501    0  0.24798395398E+02  0.70814816192E+02  0.54628170809E+02  0.92930219265E+02  0.47000000000E+01 0. -1.
        -13    1    6    6    0    0 -0.34709643999E+02  0.17082908682E+02 -0.39313837718E+02  0.55155806510E+02  0.00000000000E+00 0.  1.
         14    1    6    6    0    0 -0.62171797768E+02  0.11583801574E+03  0.28758863338E+01  0.13149923593E+03  0.00000000000E+00 0. -1.
         -5    1    3    3    0  503 -0.28520207277E+02  0.26356543863E+01  0.10152293838E+02  0.30749113277E+02  0.47000000000E+01 0.  1.
         13    1    4    4    0    0  0.16045203197E+02 -0.10912188890E+03  0.76206559975E+02  0.13406145966E+03  0.00000000000E+00 0. -1.
        -14    1    4    4    0    0  0.84558050449E+02 -0.97249506101E+02  0.15796679610E+03  0.20386524717E+03  0.00000000000E+00 0.  1.
</event>
<event>
12    1  0.8297444E-002  0.1897610E+03  0.7818608E-02  0.1158764E+00
         21   -1    0    0  501  502  0.00000000000E+00  0.00000000000E+00  0.96297966122E+02  0.96297966122E+02  0.00000000000E+00 0.  1.
         21   -1    0    0  502  503 -0.00000000000E+00 -0.00000000000E+00 -0.63339098742E+03  0.63339098742E+03  0.00000000000E+00 0.  1.
         -6    2    1    2    0  503  0.64498088533E+02 -0.48005368825E+02 -0.50223445131E+03  0.53675283498E+03  0.17146324073E+03 0.  0.
        -24    2    3    3    0    0 -0.13696576583E+01  0.21363892458E+02 -0.32469979061E+03  0.33503198790E+03  0.79738240698E+02 0.  0.
          6    2    1    2  501    0 -0.64498088533E+02  0.48005368825E+02 -0.34858569986E+02  0.19293611856E+03  0.17188573845E+03 0.  0.
         24    2    5    5    0    0 -0.87279160048E+02 -0.94186140845E+01  0.59661709664E+01  0.11873881061E+03  0.79730470205E+02 0.  0.
          5    1    5    5  501    0  0.22781071515E+02  0.57423982910E+02 -0.40824740953E+02  0.74197307946E+02  0.47000000000E+01 0. -1.
        -11    1    6    6    0    0 -0.55536340020E+02  0.10424505485E+00  0.42113940865E+02  0.69698493133E+02  0.00000000000E+00 0.  1.
         12    1    6    6    0    0 -0.31742820028E+02 -0.95228591394E+01 -0.36147769899E+02  0.49040317476E+02  0.00000000000E+00 0. -1.
         -5    1    3    3    0  503  0.65867746191E+02 -0.69369261283E+02 -0.17753466070E+03  0.20172084709E+03  0.47000000000E+01 0.  1.
         13    1    4    4    0    0 -0.18899531570E+02  0.22421238035E+02 -0.39007828946E+02  0.48800767696E+02  0.00000000000E+00 0. -1.
        -14    1    4    4    0    0  0.17529873912E+02 -0.10573455775E+01 -0.28569196166E+03  0.28623122020E+03  0.00000000000E+00 0.  1.
</event>
<event>
12    1  0.8297444E-002  0.2262330E+03  0.7818608E-02  0.1129723E+00
         21   -1    0    0  501  502  0.00000000000E+00  0.00000000000E+00  0.29684526236E+03  0.29684526236E+03  0.00000000000E+00 0.  1.
         21   -1    0    0  502  503 -0.00000000000E+00 -0.00000000000E+00 -0.42029528560E+03  0.42029528560E+03  0.00000000000E+00 0.  1.
         -6    2    1    2    0  503  0.50030506534E+02  0.13808405810E+03 -0.33791012586E+03  0.40541231900E+03  0.16913200924E+03 0.  0.
        -24    2    3    3    0    0  0.46749150428E+02  0.21717352926E+02 -0.21895953324E+03  0.23890913328E+03  0.80480869035E+02 0.  0.
          6    2    1    2  501    0 -0.50030506534E+02 -0.13808405810E+03  0.21446010262E+03  0.31172822897E+03  0.17207874487E+03 0.  0.
         24    2    5    5    0    0  0.28732770543E+02 -0.37986660446E+02  0.12750714579E+03  0.15743613736E+03  0.79117043954E+02 0.  0.
          5    1    5    5  501    0 -0.78763277077E+02 -0.10009739765E+03  0.86952956832E+02  0.15429209161E+03  0.47000000000E+01 0. -1.
        -11    1    6    6    0    0 -0.19242494693E+02 -0.22067777342E+02  0.89575583316E+02  0.94239299261E+02  0.00000000000E+00 0.  1.
         12    1    6    6    0    0  0.47975265236E+02 -0.15918883104E+02  0.37931562473E+02  0.63196838097E+02  0.00000000000E+00 0. -1.
         -5    1    3    3    0  503  0.32813561060E+01  0.11636670517E+03 -0.11895059262E+03  0.16650318572E+03  0.47000000000E+01 0.  1.
         13    1    4    4    0    0  0.69839789870E+02  0.14045425885E+02 -0.16230579545E+03  0.17725135112E+03  0.00000000000E+00 0. -1.
        -14    1    4    4    0    0 -0.23090639442E+02  0.76719270409E+01 -0.56653737795E+02  0.61657782157E+02  0.00000000000E+00 0.  1.
</event>
<event>
12    1  0.8297444E-002  0.1887837E+03  0.7818608E-02  0.1159936E+00
         21   -1    0    0  501  502  0.00000000000E+00  0.00000000000E+00  0.33820740516E+03  0.33820740516E+03  0.00000000000E+00 0.  1.
         21   -1    0    0  502  503 -0.00000000000E+00 -0.00000000000E+00 -0.11488589192E+03  0.11488589192E+03  0.00000000000E+00 0. -1.
         -6    2    1    2    0  503 -0.73799283607E+02 -0.13665032109E+02  0.43002025339E+02  0.19202934663E+03  0.17144395125E+03 0.  0.
        -24    2    3    3    0    0 -0.91937208615E+02 -0.29400261935E+02  0.79437884455E+02  0.14814035472E+03  0.79488121624E+02 0.  0.
          6    2    1    2  501    0  0.73799283607E+02  0.13665032109E+02  0.18031948791E+03  0.26106395045E+03  0.17322298099E+03 0.  0.
         24    2    5    5    0    0  0.55862937351E+02 -0.14599293802E+02  0.19881025912E+03  0.22253366034E+03  0.81620485827E+02 0.  0.
          5    1    5    5  501    0  0.17936346256E+02  0.28264325911E+02 -0.18490771207E+02  0.38530290111E+02  0.47000000000E+01 0. -1.
        -13    1    6    6    0    0  0.12195357150E+02  0.27372587117E+02  0.26912368602E+02  0.40277299379E+02  0.00000000000E+00 0.  1.
         14    1    6    6    0    0  0.43667580201E+02 -0.41971880919E+02  0.17189789051E+03  0.18225636096E+03  0.00000000000E+00 0. -1.
         -5    1    3    3    0  503  0.18137925007E+02  0.15735229826E+02 -0.36435859116E+02  0.43888991909E+02  0.47000000000E+01 0.  1.
         11    1    4    4    0    0 -0.27112203231E+02 -0.46759691121E+02  0.17490607976E+02  0.56810752901E+02  0.00000000000E+00 0. -1.
        -12    1    4    4    0    0 -0.64825005384E+02  0.17359429186E+02  0.61947276479E+02  0.91329601816E+02  0.00000000000E+00 0.  1.
</event>
<event>
12    1  0.8297444E-002  0.2351394E+03  0.7818608E-02  0.1123354E+00
         21   -1    0    0  501  502  0.00000000000E+00  0.00000000000E+00  0.79673769481E+02  0.79673769481E+02  0.00000000000E+00 0. -1.
         21   -1    0    0  502  503 -0.00000000000E+00 -0.00000000000E+00 -0.70416268683E+03  0.70416268683E+03  0.00000000000E+00 0. -1.
         -6    2    1    2    0  503  0.92684987472E+02  0.12975639020E+03 -0.36839046369E+03  0.43616282834E+03  0.17058502684E+03 0.  0.
        -24    2    3    3    0    0  0.79312366076E+02  0.13738895199E+03 -0.19947637035E+03  0.26648329530E+03  0.77822546882E+02 0.  0.
          6    2    1    2  501    0 -0.92684987472E+02 -0.12975639020E+03 -0.25609845366E+03  0.34767362798E+03  0.17281002842E+03 0.  0.
         24    2    5    5    0    0  0.18028500361E+02 -0.46967164724E+02 -0.89465242164E+02  0.13110897385E+03  0.81575683153E+02 0.  0.
          5    1    5    5  501    0 -0.11071348783E+03 -0.82789225475E+02 -0.16663321149E+03  0.21656465412E+03  0.47000000000E+01 0. -1.
        -13    1    6    6    0    0  0.22964581590E+02 -0.60769110816E+02 -0.95297084651E+02  0.11533339144E+03  0.00000000000E+00 0.  1.
         14    1    6    6    0    0 -0.49360812289E+01  0.13801946093E+02  0.58318424861E+01  0.15775582418E+02  0.00000000000E+00 0. -1.
         -5    1    3    3    0  503  0.13372621396E+02 -0.76325617907E+01 -0.16891409335E+03  0.16967953304E+03  0.47000000000E+01 0.  1.
         13    1    4    4    0    0 -0.14059010078E+01  0.71023971838E+02 -0.65987164679E+02  0.96957140200E+02  0.00000000000E+00 0. -1.
        -14    1    4    4    0    0  0.80718267084E+02  0.66364980151E+02 -0.13348920567E+03  0.16952615510E+03  0.00000000000E+00 0.  1.
</event>
<event>
12    1  0.8297444E-002  0.2898734E+03  0.7818608E-02  0.1090427E+00
         21   -1    0    0  501  502  0.00000000000E+00  0.00000000000E+00  0.10614439887E+03  0.10614439887E+03  0.00000000000E+00 0.  1.
         21   -1    0    0  502  503 -0.00000000000E+00 -0.00000000000E+00 -0.87808816507E+03  0.87808816507E+03  0.00000000000E+00 0. -1.
         -6    2    1    2    0  503  0.23323089640E+03 -0.13442606291E+02 -0.23128041845E+03  0.37076418797E+03  0.17145873097E+03 0.  0.
        -24    2    3    3    0    0  0.15307491155E+03  0.53094728752E+02 -0.17823027998E+03  0.25376587152E+03  0.79875566210E+02 0.  0.
          6    2    1    2  501    0 -0.23323089640E+03  0.13442606291E+02 -0.54066334775E+03  0.61346837597E+03  0.17160780289E+03 0.  0.
         24    2    5    5    0    0 -0.38873945062E+02  0.33314662766E+02 -0.18256193579E+03  0.20551220870E+03  0.79280244490E+02 0.  0.
          5    1    5    5  501    0 -0.19435695134E+03 -0.19872056475E+02 -0.35810141196E+03  0.40795616727E+03  0.47000000000E+01 0. -1.
        -11    1    6    6    0    0 -0.17409996832E+02 -0.22703413351E+02 -0.29410076663E+02  0.41030544437E+02  0.00000000000E+00 0.  1.
         12    1    6    6    0    0 -0.21463948230E+02  0.56018076117E+02 -0.15315185912E+03  0.16448166426E+03  0.00000000000E+00 0. -1.
         -5    1    3    3    0  503  0.80155984849E+02 -0.66537335044E+02 -0.53050138468E+02  0.11699831646E+03  0.47000000000E+01 0.  1.
         13    1    4    4    0    0  0.13392729717E+02 -0.11914835509E+02 -0.50657126486E+02  0.53735211717E+02  0.00000000000E+00 0. -1.
        -14    1    4    4    0    0  0.13968218183E+03  0.65009564262E+02 -0.12757315349E+03  0.20003065980E+03  0.00000000000E+00 0.  1.
</event>
<event>
12    1  0.8297444E-002  0.2047919E+03  0.7818608E-02  0.1147029E+00
         21   -1    0    0  503  502  0.00000000000E+00  0.00000000000E+00  0.19158299341E+04  0.19158299341E+04  0.00000000000E+00 0. -1.
         21   -1    0    0  501  503 -0.00000000000E+00 -0.00000000000E+00 -0.32149894022E+02  0.32149894022E+02  0.00000000000E+00 0. -1.
          6    2    1    2  501    0 -0.64029312752E+02 -0.75147346159E+02  0.36512923166E+03  0.41568211441E+03  0.17241052145E+03 0.  0.
         24    2    3    3    0    0 -0.78878222317E+01  0.45853370602E+01  0.72648476861E+02  0.10733774580E+03  0.78487880766E+02 0.  0.
         -6    2    1    2    0  502  0.64029312752E+02  0.75147346159E+02  0.15185508085E+04  0.15322977137E+04  0.17942365828E+03 0.  0.
        -24    2    5    5    0    0  0.29925426893E+02  0.10191508341E+03  0.69525114015E+03  0.70784394268E+03  0.79916731075E+02 0.  0.
          5    1    3    3  501    0 -0.56141490520E+02 -0.79732683219E+02  0.29248075480E+03  0.30834436862E+03  0.47000000000E+01 0. -1.
        -13    1    4    4    0    0  0.28181221349E+02  0.10234010996E+02  0.62697172668E+02  0.69497134317E+02  0.00000000000E+00 0.  1.
         14    1    4    4    0    0 -0.36069043580E+02 -0.56486739353E+01  0.99513041927E+01  0.37840611480E+02  0.00000000000E+00 0. -1.
         -5    1    5    5    0  502  0.34103885859E+02 -0.26767737254E+02  0.82329966830E+03  0.82445377106E+03  0.47000000000E+01 0.  1.
         13    1    6    6    0    0 -0.17937217101E+02  0.75394940001E+02  0.44278181833E+03  0.44951293572E+03  0.00000000000E+00 0. -1.
        -14    1    6    6    0    0  0.47862643994E+02  0.26520143412E+02  0.25246932182E+03  0.25833100696E+03  0.00000000000E+00 0.  1.
</event>
<event>
12    1  0.8297444E-002  0.2530556E+03  0.7818608E-02  0.1111420E+00
         21   -1    0    0  501  502  0.00000000000E+00  0.00000000000E+00  0.87661314703E+03  0.87661314703E+03  0.00000000000E+00 0. -1.
         21   -1    0    0  502  503 -0.00000000000E+00 -0.00000000000E+00 -0.16144320424E+03  0.16144320424E+03  0.00000000000E+00 0. -1.
         -6    2    1    2    0  503  0.18464869969E+03 -0.15614572581E+02 -0.26656049833E+02  0.25425602140E+03  0.17203668868E+03 0.  0.
        -24    2    3    3    0    0  0.41910626754E+02 -0.14664639965E+02 -0.56875257898E+02  0.10827537072E+03  0.80729230412E+02 0.  0.
          6    2    1    2  501    0 -0.18464869969E+03  0.15614572581E+02  0.74182599262E+03  0.78380032987E+03  0.17233164715E+03 0.  0.
         24    2    5    5    0    0 -0.73694558245E+02 -0.54327751145E+02  0.34256141284E+03  0.36351822840E+03  0.80092373875E+02 0.  0.
          5    1    5    5  501    0 -0.11095414144E+03  0.69942323726E+02  0.39926457978E+03  0.42028210147E+03  0.47000000000E+01 0. -1.
        -13    1    6    6    0    0  0.15369366461E+02 -0.43228059068E+01  0.84175870655E+02  0.85676608692E+02  0.00000000000E+00 0.  1.
         14    1    6    6    0    0 -0.89063924705E+02 -0.50004945238E+02  0.25838554219E+03  0.27784161971E+03  0.00000000000E+00 0. -1.
         -5    1    3    3    0  503  0.14273807293E+03 -0.94993261602E+00  0.30219208066E+02  0.14598065068E+03  0.47000000000E+01 0.  1.
         13    1    4    4    0    0  0.58761291619E+02 -0.77167792470E+01 -0.65309528487E+02  0.88191680934E+02  0.00000000000E+00 0. -1.
        -14    1    4    4    0    0 -0.16850664866E+02 -0.69478607180E+01  0.84342705889E+01  0.20083689784E+02  0.00000000000E+00 0.  1.
</event>
<event>
12    1  0.8297444E-002  0.2739952E+03  0.7818608E-02  0.1099139E+00
         21   -1    0    0  503  502  0.00000000000E+00  0.00000000000E+00  0.50782814508E+02  0.50782814508E+02  0.00000000000E+00 0. -1.
         21   -1    0    0  501  503 -0.00000000000E+00 -0.00000000000E+00 -0.24413163115E+04  0.24413163115E+04  0.00000000000E+00 0.  1.
          6    2    1    2  501    0  0.20940301713E+03  0.36907424534E+02 -0.19786273416E+04  0.19973870627E+04  0.17139760707E+03 0.  0.
         24    2    3    3    0    0  0.23083381510E+03  0.35575917527E+02 -0.16869604017E+04  0.17048930527E+04  0.79215076578E+02 0.  0.
         -6    2    1    2    0  502 -0.20940301713E+03 -0.36907424534E+02 -0.41190615540E+03  0.49471206332E+03  0.17280498596E+03 0.  0.
        -24    2    5    5    0    0 -0.51082044842E+02 -0.50552411420E+02 -0.10789079285E+03  0.15163897112E+03  0.78670405953E+02 0.  0.
          5    1    3    3  501    0 -0.21430797970E+02  0.13315070071E+01 -0.29166693996E+03  0.29249400999E+03  0.47000000000E+01 0. -1.
        -13    1    4    4    0    0  0.43151375194E+02 -0.15459044746E+02 -0.50069203193E+03  0.50278577355E+03  0.00000000000E+00 0.  1.
         14    1    4    4    0    0  0.18768243991E+03  0.51034962273E+02 -0.11862683697E+04  0.12021072792E+04  0.00000000000E+00 0. -1.
         -5    1    5    5    0  502 -0.15832097229E+03  0.13644986886E+02 -0.30401536255E+03  0.34307309221E+03  0.47000000000E+01 0.  1.
         13    1    6    6    0    0 -0.16077154323E+00 -0.33811165568E+02 -0.88327570391E+02  0.94577906806E+02  0.00000000000E+00 0. -1.
        -14    1    6    6    0    0 -0.50921273299E+02 -0.16741245852E+02 -0.19563222462E+02  0.57061064309E+02  0.00000000000E+00 0.  1.
</event>
<event>
12    1  0.8297444E-002  0.1813363E+03  0.7818608E-02  0.1166692E+00
         21   -1    0    0  503  502  0.00000000000E+00  0.00000000000E+00  0.54080851318E+02  0.54080851318E+02  0.00000000000E+00 0.  1.
         21   -1    0    0  501  503 -0.00000000000E+00 -0.00000000000E+00 -0.16236644963E+04  0.16236644963E+04  0.00000000000E+00 0.  1.
          6    2    1    2  501    0 -0.24585836346E+02  0.51580994433E+02 -0.14496481653E+04  0.14609458134E+04  0.17209824039E+03 0.  0.
         24    2    3    3    0    0  0.16557714919E+02 -0.27898277692E+02 -0.88369346215E+03  0.88793921442E+03  0.80432839360E+02 0.  0.
         -6    2    1    2    0  502  0.24585836346E+02 -0.51580994433E+02 -0.11993547974E+03  0.21679953422E+03  0.17132558596E+03 0.  0.
        -24    2    5    5    0    0 -0.36630846420E+02 -0.25337397061E+02 -0.11790899578E+03  0.14999829704E+03  0.81321308583E+02 0.  0.
          5    1    3    3  501    0 -0.41143551265E+02  0.79479272126E+02 -0.56595470314E+03  0.57300659901E+03  0.47000000000E+01 0. -1.
        -11    1    4    4    0    0 -0.27910685360E+02  0.34878483372E+00 -0.48176353365E+03  0.48257147695E+03  0.00000000000E+00 0.  1.
         12    1    4    4    0    0  0.44468400279E+02 -0.28247062526E+02 -0.40192992850E+03  0.40536773748E+03  0.00000000000E+00 0. -1.
         -5    1    5    5    0  502  0.61216682766E+02 -0.26243597372E+02 -0.20264839555E+01  0.66801237182E+02  0.47000000000E+01 0.  1.
         11    1    6    6    0    0 -0.42524826678E+01  0.13234854657E+02 -0.92596761776E+02  0.93634423574E+02  0.00000000000E+00 0. -1.
        -12    1    6    6    0    0 -0.32378363752E+02 -0.38572251718E+02 -0.25312234007E+02  0.56363873468E+02  0.00000000000E+00 0.  1.
</event>
<event>
12    1  0.8297444E-002  0.1985624E+03  0.7818608E-02  0.1151627E+00
         21   -1    0    0  501  502  0.00000000000E+00  0.00000000000E+00  0.68934209210E+03  0.68934209210E+03  0.00000000000E+00 0. -1.
         21   -1    0    0  502  503 -0.00000000000E+00 -0.00000000000E+00 -0.56424028947E+02  0.56424028947E+02  0.00000000000E+00 0. -1.
         -6    2    1    2    0  503  0.43373882529E+02 -0.80175324928E+02  0.29652449567E+03  0.35514141649E+03  0.17288514327E+03 0.  0.
        -24    2    3    3    0    0 -0.13939436151E+01 -0.11022708304E+03  0.17018352412E+03  0.21769543614E+03  0.79227003733E+02 0.  0.
          6    2    1    2  501    0 -0.43373882529E+02  0.80175324928E+02  0.33639356749E+03  0.39062470456E+03  0.17640195904E+03 0.  0.
         24    2    5    5    0    0  0.34538646329E+02  0.81221931780E+02  0.22033474978E+03  0.25075620665E+03  0.80878630811E+02 0.  0.
          5    1    5    5  501    0 -0.77912528858E+02 -0.10466068520E+01  0.11605881772E+03  0.13986849791E+03  0.47000000000E+01 0. -1.
        -11    1    6    6    0    0 -0.25816653304E+02  0.14023835986E+02  0.52691791872E+02  0.60329035251E+02  0.00000000000E+00 0.  1.
         12    1    6    6    0    0  0.60355299632E+02  0.67198095794E+02  0.16764295790E+03  0.19042717140E+03  0.00000000000E+00 0. -1.
         -5    1    3    3    0  503  0.44767826144E+02  0.30051758109E+02  0.12634097155E+03  0.13744598035E+03  0.47000000000E+01 0.  1.
         11    1    4    4    0    0 -0.24081294343E+02 -0.22353569281E+01  0.20321052943E+02  0.31588775705E+02  0.00000000000E+00 0. -1.
        -12    1    4    4    0    0  0.22687350727E+02 -0.10799172611E+03  0.14986247117E+03  0.18610666043E+03  0.00000000000E+00 0.  1.
</event>
<event>
12    1  0.8297444E-002  0.1796963E+03  0.7818608E-02  0.1168327E+00
         21   -1    0    0  501  502  0.00000000000E+00  0.00000000000E+00  0.41139519767E+03  0.41139519767E+03  0.00000000000E+00 0.  1.
         21   -1    0    0  502  503 -0.00000000000E+00 -0.00000000000E+00 -0.89698385348E+02  0.89698385348E+02  0.00000000000E+00 0.  1.
         -6    2    1    2    0  503  0.47344683080E+02 -0.21324568011E+02  0.71040807491E+02  0.19322931996E+03  0.17203057154E+03 0.  0.
        -24    2    3    3    0    0  0.41073647653E+02 -0.71180609259E+02  0.87716767418E+01  0.11307643243E+03  0.77172622044E+02 0.  0.
          6    2    1    2  501    0 -0.47344683080E+02  0.21324568011E+02  0.25065600483E+03  0.30786426306E+03  0.17104302235E+03 0.  0.
         24    2    5    5    0    0 -0.79132077412E+02 -0.24927838271E+02  0.14482176516E+03  0.18797806781E+03  0.86481949079E+02 0.  0.
          5    1    5    5  501    0  0.31787394332E+02  0.46252406282E+02  0.10583423966E+03  0.11988619525E+03  0.47000000000E+01 0. -1.
        -11    1    6    6    0    0 -0.62911234598E+02 -0.21346547909E+02  0.15490217218E+03  0.16854726783E+03  0.00000000000E+00 0.  1.
         12    1    6    6    0    0 -0.16220842814E+02 -0.35812903627E+01 -0.10080407018E+02  0.19430799981E+02  0.00000000000E+00 0. -1.
         -5    1    3    3    0  503  0.62710354274E+01  0.49856041248E+02  0.62269130749E+02  0.80152887525E+02  0.47000000000E+01 0.  1.
         13    1    4    4    0    0  0.21252839889E+02 -0.27882620363E+01  0.31702333586E+02  0.38268728269E+02  0.00000000000E+00 0. -1.
        -14    1    4    4    0    0  0.19820807764E+02 -0.68392347223E+02 -0.22930656844E+02  0.74807704165E+02  0.00000000000E+00 0.  1.
</event>
<event>
12    1  0.8297444E-002  0.2314300E+03  0.7818608E-02  0.1126236E+00
         21   -1    0    0  501  502  0.00000000000E+00  0.00000000000E+00  0.27268968624E+03  0.27268968624E+03  0.00000000000E+00 0. -1.
         21   -1    0    0  502  503 -0.00000000000E+00 -0.00000000000E+00 -0.28056290000E+03  0.28056290000E+03  0.00000000000E+00 0.  1.
         -6    2    1    2    0  503 -0.87614949111E+02  0.12140452322E+03  0.15014465875E+03  0.27302147365E+03  0.17199380499E+03 0.  0.
        -24    2    3    3    0    0 -0.86441582602E+02  0.15110711496E+03  0.10285327788E+03  0.21696627362E+03  0.78676932585E+02 0.  0.
          6    2    1    2  501    0  0.87614949111E+02 -0.12140452322E+03 -0.15801787251E+03  0.28023111259E+03  0.17647773477E+03 0.  0.
         24    2    5    5    0    0  0.48897373082E+02 -0.45538799269E+02 -0.16651316852E+03  0.19450527741E+03  0.75106140349E+02 0.  0.
          5    1    5    5  501    0  0.38717576029E+02 -0.75865723947E+02  0.84952960091E+01  0.85725835183E+02  0.47000000000E+01 0. -1.
        -11    1    6    6    0    0  0.50807666919E+02 -0.91424838328E+01 -0.47915199556E+02  0.70433446437E+02  0.00000000000E+00 0.  1.
         12    1    6    6    0    0 -0.19102938376E+01 -0.36396315436E+02 -0.11859796896E+03  0.12407183097E+03  0.00000000000E+00 0. -1.
         -5    1    3    3    0  503 -0.11733665093E+01 -0.29702591749E+02  0.47291380873E+02  0.56055200031E+02  0.47000000000E+01 0.  1.
         13    1    4    4    0    0 -0.47833122021E+02  0.14284185357E+03  0.72571573844E+02  0.16720776305E+03  0.00000000000E+00 0. -1.
        -14    1    4    4    0    0 -0.38608460581E+02  0.82652613897E+01  0.30281704036E+02  0.49758510564E+02  0.00000000000E+00 0.  1.
</event>
<event>
12    1  0.8297444E-002  0.1817755E+03  0.7818608E-02  0.1166245E+00
         21   -1    0    0  503  502  0.00000000000E+00  0.00000000000E+00  0.46706500733E+03  0.46706500733E+03  0.00000000000E+00 0.  1.
         21   -1    0    0  501  503 -0.00000000000E+00 -0.00000000000E+00 -0.12293774078E+03  0.12293774078E+03  0.00000000000E+00 0.  1.
          6    2    1    2  501    0  0.15854379895E+01 -0.57625173221E+02 -0.20766527963E+02  0.18233890194E+03  0.17173541357E+03 0.  0.
         24    2    3    3    0    0 -0.21087063457E+02 -0.86349883344E+02 -0.55821032297E+02  0.13144627411E+03  0.79127547231E+02 0.  0.
         -6    2    1    2    0  502 -0.15854379895E+01  0.57625173221E+02  0.36489379451E+03  0.40766384618E+03  0.17239244764E+03 0.  0.
        -24    2    5    5    0    0  0.41716400957E+02 -0.12567505196E+02  0.13082382653E+03  0.15944438427E+03  0.80058964461E+02 0.  0.
          5    1    3    3  501    0  0.22672501446E+02  0.28724710123E+02  0.35054504334E+02  0.50892627831E+02  0.47000000000E+01 0. -1.
        -13    1    4    4    0    0 -0.12588632519E+02 -0.60563012124E+02 -0.75726822057E+02  0.97779873620E+02  0.00000000000E+00 0.  1.
         14    1    4    4    0    0 -0.84984309373E+01 -0.25786871219E+02  0.19905789760E+02  0.33666400486E+02  0.00000000000E+00 0. -1.
         -5    1    5    5    0  502 -0.43301838946E+02  0.70192678417E+02  0.23406996798E+03  0.24821946191E+03  0.47000000000E+01 0.  1.
         11    1    6    6    0    0 -0.50434902497E+01  0.22958151335E+02  0.10890814059E+02  0.25906048280E+02  0.00000000000E+00 0. -1.
        -12    1    6    6    0    0  0.46759891206E+02 -0.35525656531E+02  0.11993301247E+03  0.13353833599E+03  0.00000000000E+00 0.  1.
</event>
<event>
12    1  0.8297444E-002  0.1838645E+03  0.7818608E-02  0.1164443E+00
         21   -1    0    0  501  502  0.00000000000E+00  0.00000000000E+00  0.46052770224E+03  0.46052770224E+03  0.00000000000E+00 0. -1.
         21   -1    0    0  502  503 -0.00000000000E+00 -0.00000000000E+00 -0.90003708322E+02  0.90003708322E+02  0.00000000000E+00 0. -1.
         -6    2    1    2    0  503  0.66355499967E+02 -0.11357230073E+02  0.30599220544E+03  0.35698374050E+03  0.17109682096E+03 0.  0.
        -24    2    3    3    0    0  0.73948582615E+02 -0.13055919103E+02  0.32116593653E+03  0.33929553642E+03  0.79593042141E+02 0.  0.
          6    2    1    2  501    0 -0.66355499967E+02  0.11357230073E+02  0.64531788483E+02  0.19354767006E+03  0.16960044166E+03 0.  0.
         24    2    5    5    0    0  0.10914488409E+02  0.15765939304E+02  0.78771805307E+02  0.11471267847E+03  0.81156086588E+02 0.  0.
          5    1    5    5  501    0 -0.77269988376E+02 -0.44087092315E+01 -0.14240016825E+02  0.78834991596E+02  0.47000000000E+01 0. -1.
        -13    1    6    6    0    0 -0.14340051398E+02 -0.10890263742E+02  0.75758953251E+02  0.77869467162E+02  0.00000000000E+00 0.  1.
         14    1    6    6    0    0  0.25254539807E+02  0.26656203047E+02  0.30128520568E+01  0.36843211305E+02  0.00000000000E+00 0. -1.
         -5    1    3    3    0  503 -0.75930826479E+01  0.16986890305E+01 -0.15173731086E+02  0.17688204081E+02  0.47000000000E+01 0.  1.
         13    1    4    4    0    0  0.16739710121E+02  0.29036714207E+02  0.60916305253E+02  0.69528015307E+02  0.00000000000E+00 0. -1.
        -14    1    4    4    0    0  0.57208872494E+02 -0.42092633310E+02  0.26024963127E+03  0.26976752112E+03  0.00000000000E+00 0.  1.
</event>
<event>
12    1  0.8297444E-002  0.1853552E+03  0.7818608E-02  0.1164079E+00
         21   -1    0    0  501  502  0.00000000000E+00  0.00000000000E+00  0.13979918757E+04  0.13979918757E+04  0.00000000000E+00 0.  1.
         21   -1    0    0  502  503 -0.00000000000E+00 -0.00000000000E+00 -0.25520723404E+02  0.25520723404E+02  0.00000000000E+00 0.  1.
         -6    2    1    2    0  503  0.19052054529E+02  0.64762584677E+02  0.85987765474E+03  0.87843588271E+03  0.16644171878E+03 0.  0.
        -24    2    3    3    0    0  0.35636219652E+02  0.29055933891E+00  0.69508148332E+03  0.70063952533E+03  0.80544716865E+02 0.  0.
          6    2    1    2  501    0 -0.19052054529E+02 -0.64762584677E+02  0.51259349751E+03  0.54507671635E+03  0.17262491090E+03 0.  0.
         24    2    5    5    0    0  0.25873506282E+02 -0.47030962623E+02  0.47261125508E+03  0.48220075795E+03  0.79213778920E+02 0.  0.
          5    1    5    5  501    0 -0.44925560811E+02 -0.17731622053E+02  0.39982242432E+02  0.62875958400E+02  0.47000000000E+01 0. -1.
        -11    1    6    6    0    0 -0.77793892574E+00 -0.53594587948E+02  0.41429507691E+03  0.41774800514E+03  0.00000000000E+00 0.  1.
         12    1    6    6    0    0  0.26651445208E+02  0.65636253247E+01  0.58316178172E+02  0.64452752817E+02  0.00000000000E+00 0. -1.
         -5    1    3    3    0  503 -0.16584165123E+02  0.64472025338E+02  0.16479617142E+03  0.17779635738E+03  0.47000000000E+01 0.  1.
         11    1    4    4    0    0  0.37558794482E+01 -0.18597940327E+02  0.56669038863E+03  0.56700792462E+03  0.00000000000E+00 0. -1.
        -12    1    4    4    0    0  0.31880340204E+02  0.18888499666E+02  0.12839109470E+03  0.13363160071E+03  0.00000000000E+00 0.  1.
</event>
<event>
12    1  0.8297444E-002  0.2336561E+03  0.7818608E-02  0.1124260E+00
         21   -1    0    0  503  502  0.00000000000E+00  0.00000000000E+00  0.32785951220E+03  0.32785951220E+03  0.00000000000E+00 0. -1.
         21   -1    0    0  501  503 -0.00000000000E+00 -0.00000000000E+00 -0.17410986675E+03  0.17410986675E+03  0.00000000000E+00 0.  1.
          6    2    1    2  501    0  0.88176817090E+02  0.12938244981E+03  0.21995325961E+02  0.23372625620E+03  0.17213134254E+03 0.  0.
         24    2    3    3    0    0  0.99518299661E+02  0.96096492873E+02 -0.35762559316E+02  0.16594242725E+03  0.84377133174E+02 0.  0.
         -6    2    1    2    0  502 -0.88176817090E+02 -0.12938244981E+03  0.13175431948E+03  0.26824312275E+03  0.17343645179E+03 0.  0.
        -24    2    5    5    0    0 -0.60562470028E+02 -0.94326043441E+01  0.15032827895E+02  0.98547765745E+02  0.75689427388E+02 0.  0.
          5    1    3    3  501    0 -0.11341482571E+02  0.33285956932E+02  0.57757885277E+02  0.67783828953E+02  0.47000000000E+01 0. -1.
        -11    1    4    4    0    0  0.30356128223E+02  0.10426496092E+01  0.19451438826E+02  0.36068547396E+02  0.00000000000E+00 0.  1.
         12    1    4    4    0    0  0.69162171438E+02  0.95053843264E+02 -0.55213998142E+02  0.12987387985E+03  0.00000000000E+00 0. -1.
         -5    1    5    5    0  502 -0.27614347063E+02 -0.11994984546E+03  0.11672149159E+03  0.16969535700E+03  0.47000000000E+01 0.  1.
         13    1    6    6    0    0 -0.77783554655E+02 -0.14677867822E+02  0.95567637797E+01  0.79731128880E+02  0.00000000000E+00 0. -1.
        -14    1    6    6    0    0  0.17221084628E+02  0.52452634781E+01  0.54760641152E+01  0.18816636865E+02  0.00000000000E+00 0.  1.
</event>
<event>
12    1  0.8297444E-002  0.2441832E+03  0.7818608E-02  0.1117730E+00
         21   -1    0    0  503  502  0.00000000000E+00  0.00000000000E+00  0.51667574971E+02  0.51667574971E+02  0.00000000000E+00 0.  1.
         21   -1    0    0  501  503 -0.00000000000E+00 -0.00000000000E+00 -0.11418540280E+04  0.11418540280E+04  0.00000000000E+00 0.  1.
          6    2    1    2  501    0 -0.23120743218E+02  0.17213336597E+03 -0.58928668986E+03  0.63627299803E+03  0.16559003812E+03 0.  0.
         24    2    3    3    0    0 -0.60561672076E+02  0.13771506287E+03 -0.53576084711E+03  0.56228956350E+03  0.80602191407E+02 0.  0.
         -6    2    1    2    0  502  0.23120743218E+02 -0.17213336597E+03 -0.50089976318E+03  0.55724860496E+03  0.17164198357E+03 0.  0.
        -24    2    5    5    0    0  0.75537590515E+02 -0.14875221104E+03 -0.35222480734E+03  0.39781041386E+03  0.79734952170E+02 0.  0.
          5    1    3    3  501    0  0.37440928858E+02  0.34418303101E+02 -0.53525842751E+02  0.73983434526E+02  0.47000000000E+01 0. -1.
        -11    1    4    4    0    0 -0.10727688886E+02  0.60127695404E+02 -0.10244280718E+03  0.11926840238E+03  0.00000000000E+00 0.  1.
         12    1    4    4    0    0 -0.49833983190E+02  0.77587367464E+02 -0.43331803993E+03  0.44302116112E+03  0.00000000000E+00 0. -1.
         -5    1    5    5    0  502 -0.52416847298E+02 -0.23381154926E+02 -0.14867495584E+03  0.15943819110E+03  0.47000000000E+01 0.  1.
         11    1    6    6    0    0  0.70294138450E+02 -0.93078808179E+02 -0.29758588288E+03  0.31962835938E+03  0.00000000000E+00 0. -1.
        -12    1    6    6    0    0  0.52434520658E+01 -0.55673402865E+02 -0.54638924465E+02  0.78182054481E+02  0.00000000000E+00 0.  1.
</event>
<event>
12    1  0.8297444E-002  0.1896597E+03  0.7818608E-02  0.1158771E+00
         21   -1    0    0  503  502  0.00000000000E+00  0.00000000000E+00  0.42047691386E+02  0.42047691386E+02  0.00000000000E+00 0.  1.
         21   -1    0    0  501  503 -0.00000000000E+00 -0.00000000000E+00 -0.86319591732E+03  0.86319591732E+03  0.00000000000E+00 0.  1.
          6    2    1    2  501    0 -0.76819321234E+02  0.24304098509E+02 -0.45353054377E+03  0.49159001395E+03  0.17169417685E+03 0.  0.
         24    2    3    3    0    0 -0.10783400771E+03  0.53364635241E+02 -0.30893885677E+03  0.34080781500E+03  0.78935366143E+02 0.  0.
         -6    2    1    2    0  502  0.76819321234E+02 -0.24304098509E+02 -0.36761768217E+03  0.41365359476E+03  0.17168179547E+03 0.  0.
        -24    2    5    5    0    0  0.11215958553E+02  0.38655138265E+02 -0.22308561754E+03  0.24283417433E+03  0.87070236182E+02 0.  0.
          5    1    3    3  501    0  0.31014686472E+02 -0.29060536732E+02 -0.14459168699E+03  0.15078219895E+03  0.47000000000E+01 0. -1.
        -11    1    4    4    0    0 -0.35262027055E+02  0.61427041603E+02 -0.15667031923E+03  0.17193685154E+03  0.00000000000E+00 0.  1.
         12    1    4    4    0    0 -0.72571980651E+02 -0.80624063620E+01 -0.15226853755E+03  0.16887096346E+03  0.00000000000E+00 0. -1.
         -5    1    5    5    0  502  0.65603362682E+02 -0.62959236774E+02 -0.14453206463E+03  0.17081942043E+03  0.47000000000E+01 0.  1.
         11    1    6    6    0    0  0.30877345823E+02  0.35996850405E+02 -0.51132931946E+02  0.69740665709E+02  0.00000000000E+00 0. -1.
        -12    1    6    6    0    0 -0.19661387271E+02  0.26582878603E+01 -0.17195268559E+03  0.17309350862E+03  0.00000000000E+00 0.  1.
</event>
<event>
12    1  0.8297444E-002  0.1807835E+03  0.7818608E-02  0.1167721E+00
         21   -1    0    0  501  502  0.00000000000E+00  0.00000000000E+00  0.11408486030E+03  0.11408486030E+03  0.00000000000E+00 0.  1.
         21   -1    0    0  502  503 -0.00000000000E+00 -0.00000000000E+00 -0.84668147967E+03  0.84668147967E+03  0.00000000000E+00 0.  1.
         -6    2    1    2    0  503 -0.30116060991E+02 -0.31920671275E+02 -0.75762829395E+03  0.77825811994E+03  0.17250844346E+03 0.  0.
        -24    2    3    3    0    0 -0.62190131772E+02 -0.41432209570E+02 -0.28707939497E+03  0.30649804139E+03  0.77085860434E+02 0.  0.
          6    2    1    2  501    0  0.30116060991E+02  0.31920671275E+02  0.25031674587E+02  0.18250822004E+03  0.17537605100E+03 0.  0.
         24    2    5    5    0    0 -0.19327798691E+02 -0.13972590197E+02  0.63808940178E+02  0.10455533019E+03  0.79318592684E+02 0.  0.
          5    1    5    5  501    0  0.49443859682E+02  0.45893261472E+02 -0.38777265591E+02  0.77952889847E+02  0.47000000000E+01 0. -1.
        -13    1    6    6    0    0 -0.46258539081E+02  0.14277028954E+01  0.55838529531E+02  0.72524700300E+02  0.00000000000E+00 0.  1.
         14    1    6    6    0    0  0.26930740389E+02 -0.15400293092E+02  0.79704106470E+01  0.32030629890E+02  0.00000000000E+00 0. -1.
         -5    1    3    3    0  503  0.32074070781E+02  0.95115382949E+01 -0.47054889898E+03  0.47176007855E+03  0.47000000000E+01 0.  1.
         13    1    4    4    0    0 -0.34979355992E+02 -0.14449013445E+02 -0.35086725533E+02  0.51608212949E+02  0.00000000000E+00 0. -1.
        -14    1    4    4    0    0 -0.27210775780E+02 -0.26983196125E+02 -0.25199266944E+03  0.25488982844E+03  0.00000000000E+00 0.  1.
</event>
<event>
12    1  0.8297444E-002  0.1931153E+03  0.7818608E-02  0.1156272E+00
         21   -1    0    0  503  502  0.00000000000E+00  0.00000000000E+00  0.89232411288E+02  0.89232411288E+02  0.00000000000E+00 0. -1.
         21   -1    0    0  501  503 -0.00000000000E+00 -0.00000000000E+00 -0.45407914396E+03  0.45407914396E+03  0.00000000000E+00 0. -1.
          6    2    1    2  501    0  0.73466921197E+02 -0.38010611452E+02 -0.26376554801E+03  0.32534153420E+03  0.17155947793E+03 0.  0.
         24    2    3    3    0    0  0.86638166958E+02 -0.37446297940E+02 -0.27837252718E+03  0.30511150689E+03  0.81813021829E+02 0.  0.
         -6    2    1    2    0  502 -0.73466921197E+02  0.38010611452E+02 -0.10108118466E+03  0.21797002105E+03  0.17450309192E+03 0.  0.
        -24    2    5    5    0    0 -0.88918940955E+02  0.82675859787E+02 -0.80071597457E+02  0.16603504172E+03  0.80089315809E+02 0.  0.
          5    1    3    3  501    0 -0.13171245761E+02 -0.56431351118E+00  0.14606979173E+02  0.20230027316E+02  0.47000000000E+01 0. -1.
        -11    1    4    4    0    0  0.16873048073E+02  0.20233690091E+02 -0.11847363211E+03  0.12136763766E+03  0.00000000000E+00 0.  1.
         12    1    4    4    0    0  0.69765118885E+02 -0.57679988031E+02 -0.15989889507E+03  0.18374386922E+03  0.00000000000E+00 0. -1.
         -5    1    5    5    0  502  0.15452019758E+02 -0.44665248335E+02 -0.21009587206E+02  0.51934979330E+02  0.47000000000E+01 0.  1.
         13    1    6    6    0    0 -0.39466343337E+02  0.63593222533E+02 -0.61825492176E+01  0.75099361671E+02  0.00000000000E+00 0. -1.
        -14    1    6    6    0    0 -0.49452597618E+02  0.19082637253E+02 -0.73889048240E+02  0.90935680047E+02  0.00000000000E+00 0.  1.
</event>
<event>
12    1  0.8297444E-002  0.2706819E+03  0.7818608E-02  0.1100936E+00
         21   -1    0    0  501  502  0.00000000000E+00  0.00000000000E+00  0.95936570560E+02  0.95936570560E+02  0.00000000000E+00 0.  1.
         21   -1    0    0  502  503 -0.00000000000E+00 -0.00000000000E+00 -0.96756230095E+03  0.96756230095E+03  0.00000000000E+00 0. -1.
         -6    2    1    2    0  503  0.17255083806E+03 -0.11784504691E+03 -0.68021954765E+03  0.73197960420E+03  0.17156416050E+03 0.  0.
        -24    2    3    3    0    0  0.72999288723E+02 -0.36043309996E+02 -0.16342105127E+03  0.19934012858E+03  0.80012689699E+02 0.  0.
          6    2    1    2  501    0 -0.17255083806E+03  0.11784504691E+03 -0.19140618274E+03  0.33151926731E+03  0.17206815803E+03 0.  0.
         24    2    5    5    0    0 -0.16870972035E+03  0.10789419731E+03 -0.97090196551E+02  0.23648575299E+03  0.79967978247E+02 0.  0.
          5    1    5    5  501    0 -0.38411177097E+01  0.99508495986E+01 -0.94315986188E+02  0.95033514318E+02  0.47000000000E+01 0. -1.
        -13    1    6    6    0    0 -0.51275442865E+02  0.45406255217E+02  0.51891239132E+01  0.68686432873E+02  0.00000000000E+00 0.  1.
         14    1    6    6    0    0 -0.11743427749E+03  0.62487942093E+02 -0.10227932046E+03  0.16779932011E+03  0.00000000000E+00 0. -1.
         -5    1    3    3    0  503  0.99551549339E+02 -0.81801736914E+02 -0.51679849637E+03  0.53263947562E+03  0.47000000000E+01 0.  1.
         11    1    4    4    0    0  0.64704509931E+02 -0.59415537888E+02 -0.11280664331E+03  0.14297628657E+03  0.00000000000E+00 0. -1.
        -12    1    4    4    0    0  0.82947787924E+01  0.23372227892E+02 -0.50614407967E+02  0.56363842007E+02  0.00000000000E+00 0.  1.
</event>
<event>
12    1  0.8297444E-002  0.1776013E+03  0.7818608E-02  0.1170158E+00
         21   -1    0    0  501  502  0.00000000000E+00  0.00000000000E+00  0.28200095408E+02  0.28200095408E+02  0.00000000000E+00 0.  1.
         21   -1    0    0  502  503 -0.00000000000E+00 -0.00000000000E+00 -0.11229634437E+04  0.11229634437E+04  0.00000000000E+00 0. -1.
         -6    2    1    2    0  503 -0.28913913559E+02 -0.31639809413E+02 -0.50978326129E+03  0.53981754966E+03  0.17229893061E+03 0.  0.
        -24    2    3    3    0    0  0.33546324428E+02  0.18425776861E+02 -0.33170191283E+03  0.34451547356E+03  0.84852150305E+02 0.  0.
          6    2    1    2  501    0  0.28913913559E+02  0.31639809413E+02 -0.58498008697E+03  0.61134598942E+03  0.17235174699E+03 0.  0.
         24    2    5    5    0    0 -0.41581007526E+02  0.51467438642E+02 -0.30079322516E+03  0.31783801474E+03  0.78527459400E+02 0.  0.
          5    1    5    5  501    0  0.70494921085E+02 -0.19827629229E+02 -0.28418686181E+03  0.29350797468E+03  0.47000000000E+01 0. -1.
        -13    1    6    6    0    0 -0.26242588138E+01 -0.14748571389E+02 -0.12581779834E+02  0.19562931175E+02  0.00000000000E+00 0.  1.
         14    1    6    6    0    0 -0.38956748713E+02  0.66216010032E+02 -0.28821144533E+03  0.29827508356E+03  0.00000000000E+00 0. -1.
         -5    1    3    3    0  503 -0.62460237986E+02 -0.50065586275E+02 -0.17808134846E+03  0.19530207609E+03  0.47000000000E+01 0.  1.
         11    1    4    4    0    0 -0.25637337232E+02  0.13364146776E+02 -0.16576552807E+03  0.16826789289E+03  0.00000000000E+00 0. -1.
        -12    1    4    4    0    0  0.59183661660E+02  0.50616300855E+01 -0.16593638476E+03  0.17624758067E+03  0.00000000000E+00 0.  1.
</event>
<event>
12    1  0.8297444E-002  0.2047259E+03  0.7818608E-02  0.1147217E+00
         21   -1    0    0  501  502  0.00000000000E+00  0.00000000000E+00  0.64497848782E+02  0.64497848782E+02  0.00000000000E+00 0. -1.
         21   -1    0    0  502  503 -0.00000000000E+00 -0.00000000000E+00 -0.66860348760E+03  0.66860348760E+03  0.00000000000E+00 0. -1.
         -6    2    1    2    0  503 -0.10154636039E+03 -0.24965431766E+01 -0.38694702118E+03  0.43465439768E+03  0.16993690650E+03 0.  0.
        -24    2    3    3    0    0 -0.79060605632E+02 -0.63146670633E+02 -0.30598213852E+03  0.33091699193E+03  0.75119272373E+02 0.  0.
          6    2    1    2  501    0  0.10154636039E+03  0.24965431766E+01 -0.21715861764E+03  0.29844693870E+03  0.17774930089E+03 0.  0.
         24    2    5    5    0    0  0.10063680063E+02 -0.53923477816E+01 -0.20792287994E+02  0.81621799891E+02  0.78098936653E+02 0.  0.
          5    1    5    5  501    0  0.91482680331E+02  0.78888909583E+01 -0.19636632965E+03  0.21682513881E+03  0.47000000000E+01 0. -1.
        -13    1    6    6    0    0 -0.16454633574E+02 -0.91235384473E+01 -0.42933073098E+02  0.46874755311E+02  0.00000000000E+00 0.  1.
         14    1    6    6    0    0  0.26518313637E+02  0.37311906656E+01  0.22140785104E+02  0.34747044579E+02  0.00000000000E+00 0. -1.
         -5    1    3    3    0  503 -0.22485754763E+02  0.60650127457E+02 -0.80964882655E+02  0.10373740575E+03  0.47000000000E+01 0.  1.
         11    1    4    4    0    0 -0.76041643441E+02 -0.15023059788E+02 -0.17755826850E+03  0.19373941926E+03  0.00000000000E+00 0. -1.
        -12    1    4    4    0    0 -0.30189621909E+01 -0.48123610845E+02 -0.12842387002E+03  0.13717757267E+03  0.00000000000E+00 0.  1.
</event>
<event>
12    1  0.8297444E-002  0.1820332E+03  0.7818608E-02  0.1166655E+00
         21   -1    0    0  503  502  0.00000000000E+00  0.00000000000E+00  0.49022467909E+02  0.49022467909E+02  0.00000000000E+00 0. -1.
         21   -1    0    0  501  503 -0.00000000000E+00 -0.00000000000E+00 -0.84859565824E+03  0.84859565824E+03  0.00000000000E+00 0. -1.
          6    2    1    2  501    0 -0.44494624941E+02 -0.38627119768E+02 -0.60644798074E+03  0.63222514620E+03  0.16869397181E+03 0.  0.
         24    2    3    3    0    0 -0.94545692089E+02 -0.30412968676E+02 -0.43696572730E+03  0.45525366311E+03  0.80330656529E+02 0.  0.
         -6    2    1    2    0  502  0.44494624941E+02  0.38627119768E+02 -0.19312520959E+03  0.26539297994E+03  0.17223315939E+03 0.  0.
        -24    2    5    5    0    0  0.61829799673E+02  0.81631626026E+02 -0.10698363626E+03  0.16745240358E+03  0.78154734617E+02 0.  0.
          5    1    3    3  501    0  0.50051067149E+02 -0.82141510920E+01 -0.16948225343E+03  0.17697148310E+03  0.47000000000E+01 0. -1.
        -11    1    4    4    0    0 -0.63832335292E+02 -0.17313310634E+02 -0.12421503941E+03  0.14072559742E+03  0.00000000000E+00 0.  1.
         12    1    4    4    0    0 -0.30713356797E+02 -0.13099658042E+02 -0.31275068789E+03  0.31452806568E+03  0.00000000000E+00 0. -1.
         -5    1    5    5    0  502 -0.17335174732E+02 -0.43004506258E+02 -0.86141573329E+02  0.97940576357E+02  0.47000000000E+01 0.  1.
         11    1    6    6    0    0  0.58327331372E+02  0.43487686669E+02 -0.24945605959E+02  0.76912546008E+02  0.00000000000E+00 0. -1.
        -12    1    6    6    0    0  0.35024683008E+01  0.38143939357E+02 -0.82038030303E+02  0.90539857576E+02  0.00000000000E+00 0.  1.
</event>
<event>
12    1  0.8297444E-002  0.1871439E+03  0.7818608E-02  0.1161770E+00
         21   -1    0    0  501  502  0.00000000000E+00  0.00000000000E+00  0.56753292993E+02  0.56753292993E+02  0.00000000000E+00 0.  1.
         21   -1    0    0  502  503 -0.00000000000E+00 -0.00000000000E+00 -0.80396916425E+03  0.80396916425E+03  0.00000000000E+00 0.  1.
         -6    2    1    2    0  503  0.55578298129E+02  0.35807414639E+02 -0.58888350540E+03  0.61790503175E+03  0.17507634667E+03 0.  0.
        -24    2    3    3    0    0  0.44190155102E+02  0.42933416815E+02 -0.16033397875E+03  0.18911923849E+03  0.79139456266E+02 0.  0.
          6    2    1    2  501    0 -0.55578298129E+02 -0.35807414639E+02 -0.15833236586E+03  0.24281742549E+03  0.17181398627E+03 0.  0.
         24    2    5    5    0    0  0.62080906114E+01 -0.23015054592E+02 -0.15946936695E+03  0.17953563442E+03  0.78957785595E+02 0.  0.
          5    1    5    5  501    0 -0.61786388740E+02 -0.12792360048E+02  0.11370010938E+01  0.63281791067E+02  0.47000000000E+01 0. -1.
        -11    1    6    6    0    0  0.29381592220E+02 -0.12569081889E+02 -0.19847816807E+02  0.37619085754E+02  0.00000000000E+00 0.  1.
         12    1    6    6    0    0 -0.23173501609E+02 -0.10445972702E+02 -0.13962155014E+03  0.14191654867E+03  0.00000000000E+00 0. -1.
         -5    1    3    3    0  503  0.11388143026E+02 -0.71260021758E+01 -0.42854952665E+03  0.42878579326E+03  0.47000000000E+01 0.  1.
         11    1    4    4    0    0 -0.93691576521E+01  0.40088175326E+02 -0.10136971210E+03  0.10941051799E+03  0.00000000000E+00 0. -1.
        -12    1    4    4    0    0  0.53559312755E+02  0.28452414887E+01 -0.58964266646E+02  0.79708720495E+02  0.00000000000E+00 0.  1.
</event>
<event>
12    1  0.8297444E-002  0.1915137E+03  0.7818608E-02  0.1158091E+00
         21   -1    0    0  503  502  0.00000000000E+00  0.00000000000E+00  0.37915886913E+03  0.37915886913E+03  0.00000000000E+00 0. -1.
         21   -1    0    0  501  503 -0.00000000000E+00 -0.00000000000E+00 -0.14067057012E+03  0.14067057012E+03  0.00000000000E+00 0.  1.
          6    2    1    2  501    0 -0.55827301470E+01 -0.83750183738E+02 -0.30520012048E+02  0.18961286953E+03  0.16726119994E+03 0.  0.
         24    2    3    3    0    0 -0.47223719638E+02 -0.45606718283E+02 -0.66278800729E+02  0.12260781800E+03  0.79559695577E+02 0.  0.
         -6    2    1    2    0  502  0.55827301470E+01  0.83750183738E+02  0.26900831105E+03  0.33021656972E+03  0.17214020839E+03 0.  0.
        -24    2    5    5    0    0 -0.12386944076E+02  0.36772218208E+02  0.26463481933E+03  0.27951098948E+03  0.81173722495E+02 0.  0.
          5    1    3    3  501    0  0.41640989491E+02 -0.38143465455E+02  0.35758788681E+02  0.67005051531E+02  0.47000000000E+01 0. -1.
        -13    1    4    4    0    0 -0.36832307762E+02 -0.21141823837E+02  0.84423821872E+01  0.43299762438E+02  0.00000000000E+00 0.  1.
         14    1    4    4    0    0 -0.10391411876E+02 -0.24464894446E+02 -0.74721182916E+02  0.79308055564E+02  0.00000000000E+00 0. -1.
         -5    1    5    5    0  502  0.17969674223E+02  0.46977965530E+02  0.43734917248E+01  0.50705580234E+02  0.47000000000E+01 0.  1.
         13    1    6    6    0    0 -0.66178499235E+01 -0.25227350142E+02  0.55866620398E+02  0.61654638166E+02  0.00000000000E+00 0. -1.
        -14    1    6    6    0    0 -0.57690941528E+01  0.61999568350E+02  0.20876819893E+03  0.21785635131E+03  0.00000000000E+00 0.  1.
</event>
<event>
12    1  0.8297444E-002  0.1997181E+03  0.7818608E-02  0.1150190E+00
         21   -1    0    0  503  502  0.00000000000E+00  0.00000000000E+00  0.66352474620E+03  0.66352474620E+03  0.00000000000E+00 0.  1.
         21   -1    0    0  501  503 -0.00000000000E+00 -0.00000000000E+00 -0.74786072216E+02  0.74786072216E+02  0.00000000000E+00 0. -1.
          6    2    1    2  501    0  0.95433196324E+02  0.41201822358E+02  0.45895644023E+03  0.50012866345E+03  0.16935932466E+03 0.  0.
         24    2    3    3    0    0  0.71877966265E+02 -0.13517703430E+02  0.40710373099E+03  0.42100933066E+03  0.78525399558E+02 0.  0.
         -6    2    1    2    0  502 -0.95433196324E+02 -0.41201822358E+02  0.12978223376E+03  0.23818215497E+03  0.17053511551E+03 0.  0.
        -24    2    5    5    0    0 -0.10845864550E+03  0.20173574532E+02  0.96472909578E+02  0.16699084408E+03  0.80054161845E+02 0.  0.
          5    1    3    3  501    0  0.23555230059E+02  0.54719525787E+02  0.51852709234E+02  0.79119332786E+02  0.47000000000E+01 0. -1.
        -13    1    4    4    0    0  0.15095881121E+02 -0.20270227315E+02  0.28419175406E+02  0.38031792924E+02  0.00000000000E+00 0.  1.
         14    1    4    4    0    0  0.56782085144E+02  0.67525238853E+01  0.37868455559E+03  0.38297753774E+03  0.00000000000E+00 0. -1.
         -5    1    5    5    0  502  0.13025449179E+02 -0.61375396889E+02  0.33309324179E+02  0.71191310895E+02  0.47000000000E+01 0.  1.
         11    1    6    6    0    0 -0.21141614317E+01  0.95407321181E+01 -0.11484658816E+02  0.15079543628E+02  0.00000000000E+00 0. -1.
        -12    1    6    6    0    0 -0.10634448407E+03  0.10632842413E+02  0.10795756839E+03  0.15191130045E+03  0.00000000000E+00 0.  1.
</event>
<event>
12    1  0.8297444E-002  0.2291449E+03  0.7818608E-02  0.1127479E+00
         21   -1    0    0  503  502  0.00000000000E+00  0.00000000000E+00  0.62365062925E+02  0.62365062925E+02  0.00000000000E+00 0. -1.
         21   -1    0    0  501  503 -0.00000000000E+00 -0.00000000000E+00 -0.94402666153E+03  0.94402666153E+03  0.00000000000E+00 0. -1.
          6    2    1    2  501    0 -0.74646119221E+02 -0.13176635502E+03 -0.61135940895E+03  0.65289180916E+03  0.17196793923E+03 0.  0.
         24    2    3    3    0    0 -0.73663533917E+02 -0.97184769174E+02 -0.24673000622E+03  0.28659473997E+03  0.79935307748E+02 0.  0.
         -6    2    1    2    0  502  0.74646119221E+02  0.13176635502E+03 -0.27030218965E+03  0.35349991529E+03  0.17018960295E+03 0.  0.
        -24    2    5    5    0    0 -0.23045541854E+01  0.71912415301E+02 -0.22045129918E+03  0.24390474424E+03  0.75591285923E+02 0.  0.
          5    1    3    3  501    0 -0.98258530473E+00 -0.34581585849E+02 -0.36462940274E+03  0.36629706919E+03  0.47000000000E+01 0. -1.
        -13    1    4    4    0    0 -0.61774342725E+02 -0.24927449848E+02 -0.77462359218E+02  0.10216586647E+03  0.00000000000E+00 0.  1.
         14    1    4    4    0    0 -0.11889191192E+02 -0.72257319326E+02 -0.16926764700E+03  0.18442887351E+03  0.00000000000E+00 0. -1.
         -5    1    5    5    0  502  0.76950673407E+02  0.59853939722E+02 -0.49850890471E+02  0.10959517106E+03  0.47000000000E+01 0.  1.
         11    1    6    6    0    0  0.34646068672E+02  0.25224805469E+02 -0.69700163391E+02  0.81821474333E+02  0.00000000000E+00 0. -1.
        -12    1    6    6    0    0 -0.36950622858E+02  0.46687609832E+02 -0.15075113579E+03  0.16208326990E+03  0.00000000000E+00 0.  1.
</event>
<event>
12    1  0.8297444E-002  0.1800409E+03  0.7818608E-02  0.1167854E+00
         21   -1    0    0  503  502  0.00000000000E+00  0.00000000000E+00  0.54782491477E+02  0.54782491477E+02  0.00000000000E+00 0.  1.
         21   -1    0    0  501  503 -0.00000000000E+00 -0.00000000000E+00 -0.66337699252E+03  0.66337699252E+03  0.00000000000E+00 0.  1.
          6    2    1    2  501    0 -0.38353611826E+02 -0.36525026145E+02 -0.18554214156E+03  0.25853551868E+03  0.17207455084E+03 0.  0.
         24    2    3    3    0    0 -0.32638388113E+02 -0.46920328758E+02 -0.20950650490E+03  0.23138580765E+03  0.79872615825E+02 0.  0.
         -6    2    1    2    0  502  0.38353611826E+02  0.36525026145E+02 -0.42305235948E+03  0.45962396532E+03  0.17168521649E+03 0.  0.
        -24    2    5    5    0    0 -0.18350150124E+02  0.56120260571E+01 -0.94991517135E+02  0.12523357001E+03  0.79321093566E+02 0.  0.
          5    1    3    3  501    0 -0.57152237124E+01  0.10395302612E+02  0.23964363337E+02  0.27149711023E+02  0.47000000000E+01 0. -1.
        -13    1    4    4    0    0 -0.41948119680E+02  0.72726099089E+01 -0.10483978644E+03  0.11315439196E+03  0.00000000000E+00 0.  1.
         14    1    4    4    0    0  0.93097315673E+01 -0.54192938666E+02 -0.10466671846E+03  0.11823141569E+03  0.00000000000E+00 0. -1.
         -5    1    5    5    0  502  0.56703761949E+02  0.30913000088E+02 -0.32806084235E+03  0.33439039531E+03  0.47000000000E+01 0.  1.
         11    1    6    6    0    0  0.13133280434E+02 -0.93724259455E+01 -0.88259508375E+02  0.89722161374E+02  0.00000000000E+00 0. -1.
        -12    1    6    6    0    0 -0.31483430558E+02  0.14984452003E+02 -0.67320087600E+01  0.35511408638E+02  0.00000000000E+00 0.  1.
</event>
<event>
12    1  0.8297444E-002  0.1718797E+03  0.7818608E-02  0.1180300E+00
         21   -1    0    0  503  502  0.00000000000E+00  0.00000000000E+00  0.29140359290E+03  0.29140359290E+03  0.00000000000E+00 0. -1.
         21   -1    0    0  501  503 -0.00000000000E+00 -0.00000000000E+00 -0.12862456734E+03  0.12862456734E+03  0.00000000000E+00 0. -1.
          6    2    1    2  501    0 -0.27742026601E+01  0.51129860113E+01 -0.27642765376E+02  0.17408833367E+03  0.17178121730E+03 0.  0.
         24    2    3    3    0    0  0.45534889839E+01 -0.11060197144E+02  0.49426786351E+02  0.94860354263E+02  0.80077571011E+02 0.  0.
         -6    2    1    2    0  502  0.27742026601E+01 -0.51129860113E+01  0.19042179094E+03  0.24593982657E+03  0.15553810145E+03 0.  0.
        -24    2    5    5    0    0 -0.45701737554E+02 -0.22451630792E+02  0.15942548159E+03  0.18566208129E+03  0.80381588122E+02 0.  0.
          5    1    3    3  501    0 -0.73276916440E+01  0.16173183155E+02 -0.77069551727E+02  0.79227979412E+02  0.47000000000E+01 0. -1.
        -13    1    4    4    0    0 -0.35671222721E+02 -0.14190312576E+02  0.13082197086E+02  0.40557921323E+02  0.00000000000E+00 0.  1.
         14    1    4    4    0    0  0.40224711705E+02  0.31301154320E+01  0.36344589265E+02  0.54302432940E+02  0.00000000000E+00 0. -1.
         -5    1    5    5    0  502  0.48475940214E+02  0.17338644781E+02  0.30996309352E+02  0.60277745279E+02  0.47000000000E+01 0.  1.
         13    1    6    6    0    0  0.11497099969E+02 -0.27121250981E+02  0.94615403469E+02  0.99095005606E+02  0.00000000000E+00 0. -1.
        -14    1    6    6    0    0 -0.57198837524E+02  0.46696201888E+01  0.64810078116E+02  0.86567075683E+02  0.00000000000E+00 0.  1.
</event>
<event>
12    1  0.8297444E-002  0.1869576E+03  0.7818608E-02  0.1161480E+00
         21   -1    0    0  503  502  0.00000000000E+00  0.00000000000E+00  0.15018180399E+04  0.15018180399E+04  0.00000000000E+00 0. -1.
         21   -1    0    0  501  503 -0.00000000000E+00 -0.00000000000E+00 -0.75626677852E+02  0.75626677852E+02  0.00000000000E+00 0. -1.
          6    2    1    2  501    0  0.23688763814E+02 -0.66856074377E+02  0.55414166619E+02  0.19397687636E+03  0.17182958560E+03 0.  0.
         24    2    3    3    0    0 -0.48839665808E+02 -0.48319093560E+02  0.10628216927E+02  0.10661633577E+03  0.80833386049E+02 0.  0.
         -6    2    1    2    0  502 -0.23688763814E+02  0.66856074377E+02  0.13707771954E+04  0.13834678413E+04  0.17298050888E+03 0.  0.
        -24    2    5    5    0    0  0.44462781838E+02  0.98404153124E+00  0.68034292681E+03  0.68654221612E+03  0.80596582696E+02 0.  0.
          5    1    3    3  501    0  0.72528429621E+02 -0.18536980817E+02  0.44785949692E+02  0.87360540583E+02  0.47000000000E+01 0. -1.
        -13    1    4    4    0    0 -0.68025984479E+01  0.18587236265E+02  0.18648265669E+02  0.27194089617E+02  0.00000000000E+00 0.  1.
         14    1    4    4    0    0 -0.42037067360E+02 -0.66906329825E+02 -0.80200487426E+01  0.79422246157E+02  0.00000000000E+00 0. -1.
         -5    1    5    5    0  502 -0.68151545652E+02  0.65872032846E+02  0.69043426857E+03  0.69692562523E+03  0.47000000000E+01 0.  1.
         13    1    6    6    0    0  0.92938644409E+01  0.38200355792E+02  0.35884061345E+03  0.36098785154E+03  0.00000000000E+00 0. -1.
        -14    1    6    6    0    0  0.35168917397E+02 -0.37216314260E+02  0.32150231337E+03  0.32555436458E+03  0.00000000000E+00 0.  1.
</event>
<event>
12    1  0.8297444E-002  0.1814739E+03  0.7818608E-02  0.1166527E+00
         21   -1    0    0  503  502  0.00000000000E+00  0.00000000000E+00  0.70875236251E+02  0.70875236251E+02  0.00000000000E+00 0.  1.
         21   -1    0    0  501  503 -0.00000000000E+00 -0.00000000000E+00 -0.46923595147E+03  0.46923595147E+03  0.00000000000E+00 0. -1.
          6    2    1    2  501    0  0.55577953266E+02  0.79317688229E+01 -0.16805309505E+03  0.24689731602E+03  0.17194365372E+03 0.  0.
         24    2    3    3    0    0  0.48490566467E+02 -0.54909722620E+02 -0.13928494396E+03  0.17726269377E+03  0.81580354951E+02 0.  0.
         -6    2    1    2    0  502 -0.55577953266E+02 -0.79317688229E+01 -0.23030762016E+03  0.29321387170E+03  0.17257158748E+03 0.  0.
        -24    2    5    5    0    0  0.26323673956E+02 -0.39560833478E+02 -0.11390430910E+03  0.14733688551E+03  0.80473417006E+02 0.  0.
          5    1    3    3  501    0  0.70873867992E+01  0.62841491443E+02 -0.28768151089E+02  0.69634622247E+02  0.47000000000E+01 0. -1.
        -11    1    4    4    0    0  0.13206102694E+02 -0.26662075847E+02  0.11072912180E+01  0.29774041221E+02  0.00000000000E+00 0.  1.
         12    1    4    4    0    0  0.35284463773E+02 -0.28247646773E+02 -0.14039223518E+03  0.14748865255E+03  0.00000000000E+00 0. -1.
         -5    1    5    5    0  502 -0.81901627222E+02  0.31629064655E+02 -0.11640331107E+03  0.14587698619E+03  0.47000000000E+01 0.  1.
         11    1    6    6    0    0  0.42509937221E+02 -0.19007501201E+02 -0.21480088582E+02  0.51281322818E+02  0.00000000000E+00 0. -1.
        -12    1    6    6    0    0 -0.16186263265E+02 -0.20553332276E+02 -0.92424220514E+02  0.96055562690E+02  0.00000000000E+00 0.  1.
</event>
<event>
12    1  0.8297444E-002  0.2158487E+03  0.7818608E-02  0.1137208E+00
         21   -1    0    0  503  502  0.00000000000E+00  0.00000000000E+00  0.16105121556E+03  0.16105121556E+03  0.00000000000E+00 0.  1.
         21   -1    0    0  501  503 -0.00000000000E+00 -0.00000000000E+00 -0.11341903506E+04  0.11341903506E+04  0.00000000000E+00 0. -1.
          6    2    1    2  501    0  0.13161161224E+03  0.78413767478E+01 -0.10456842513E+04  0.10675280604E+04  0.16963933138E+03 0.  0.
         24    2    3    3    0    0  0.98394163080E+02 -0.57824092858E+02 -0.59625614929E+03  0.61209084007E+03  0.78158581652E+02 0.  0.
         -6    2    1    2    0  502 -0.13161161224E+03 -0.78413767478E+01  0.72545116199E+02  0.22771350577E+03  0.17090214499E+03 0.  0.
        -24    2    5    5    0    0 -0.84468432845E+02  0.61881085780E+02  0.71022928391E+02  0.14340390845E+03  0.67499923542E+02 0.  0.
          5    1    3    3  501    0  0.33217449162E+02  0.65665469606E+02 -0.44942810200E+03  0.45543722036E+03  0.47000000000E+01 0. -1.
        -11    1    4    4    0    0  0.19581102966E+01  0.11258889528E+02 -0.15022969932E+02  0.18875550718E+02  0.00000000000E+00 0.  1.
         12    1    4    4    0    0  0.96436052783E+02 -0.69082982386E+02 -0.58123317936E+03  0.59321528935E+03  0.00000000000E+00 0. -1.
         -5    1    5    5    0  502 -0.47143179397E+02 -0.69722462528E+02  0.15221878082E+01  0.84309597320E+02  0.47000000000E+01 0.  1.
         11    1    6    6    0    0 -0.26617967435E+02 -0.87426959217E+01  0.46181227275E+00  0.28020781447E+02  0.00000000000E+00 0. -1.
        -12    1    6    6    0    0 -0.57850465410E+02  0.70623781702E+02  0.70561116119E+02  0.11538312701E+03  0.00000000000E+00 0.  1.
</event>
<event>
12    1  0.8297444E-002  0.1902636E+03  0.7818608E-02  0.1158379E+00
         21   -1    0    0  503  502  0.00000000000E+00  0.00000000000E+00  0.58693568146E+02  0.58693568146E+02  0.00000000000E+00 0.  1.
         21   -1    0    0  501  503 -0.00000000000E+00 -0.00000000000E+00 -0.62245914862E+03  0.62245914862E+03  0.00000000000E+00 0. -1.
          6    2    1    2  501    0  0.36962301866E+02 -0.71044701662E+02 -0.32080896216E+03  0.37298607275E+03  0.17258811916E+03 0.  0.
         24    2    3    3    0    0 -0.43490204389E+02 -0.44581854663E+02 -0.13541291384E+03  0.16910700868E+03  0.79884814004E+02 0.  0.
         -6    2    1    2    0  502 -0.36962301866E+02  0.71044701662E+02 -0.24295661832E+03  0.30816664402E+03  0.17182898680E+03 0.  0.
        -24    2    5    5    0    0 -0.77043167688E+02  0.40330861886E+02 -0.22247927505E+03  0.25347452990E+03  0.84794347537E+02 0.  0.
          5    1    3    3  501    0  0.80452506255E+02 -0.26462846999E+02 -0.18539604832E+03  0.20387906407E+03  0.47000000000E+01 0. -1.
        -13    1    4    4    0    0 -0.16755460089E+02 -0.46708561949E+02 -0.25155767662E+02  0.55634951683E+02  0.00000000000E+00 0.  1.
         14    1    4    4    0    0 -0.26734744300E+02  0.21267072859E+01 -0.11025714618E+03  0.11347205700E+03  0.00000000000E+00 0. -1.
         -5    1    5    5    0  502  0.40080865823E+02  0.30713839775E+02 -0.20477343271E+02  0.54692114114E+02  0.47000000000E+01 0.  1.
         11    1    6    6    0    0 -0.57058570337E+02  0.27410025205E+02 -0.22071336497E+03  0.22961136602E+03  0.00000000000E+00 0. -1.
        -12    1    6    6    0    0 -0.19984597351E+02  0.12920836682E+02 -0.17659100789E+01  0.23863163878E+02  0.00000000000E+00 0.  1.
</event>
<event>
12    1  0.8297444E-002  0.2034077E+03  0.7818608E-02  0.1146943E+00
         21   -1    0    0  503  502  0.00000000000E+00  0.00000000000E+00  0.22680573102E+03  0.22680573102E+03  0.00000000000E+00 0.  1.
         21   -1    0    0  501  503 -0.00000000000E+00 -0.00000000000E+00 -0.20054465802E+03  0.20054465802E+03  0.00000000000E+00 0.  1.
          6    2    1    2  501    0 -0.87954781864E+02  0.63779162308E+02 -0.51459493435E+02  0.20981604183E+03  0.17196181771E+03 0.  0.
         24    2    3    3    0    0 -0.67974121213E+02 -0.14823270984E+02 -0.69396463013E+02  0.12662112494E+03  0.79855054222E+02 0.  0.
         -6    2    1    2    0  502  0.87954781864E+02 -0.63779162308E+02  0.77720566439E+02  0.21753434720E+03  0.17168832392E+03 0.  0.
        -24    2    5    5    0    0 -0.18052232017E+02 -0.37403111847E+02  0.17662493275E+02  0.92785619027E+02  0.81069917805E+02 0.  0.
          5    1    3    3  501    0 -0.19980660651E+02  0.78602433292E+02  0.17936969577E+02  0.83194916894E+02  0.47000000000E+01 0. -1.
        -11    1    4    4    0    0 -0.49213398940E+01 -0.15538156473E+02  0.14400573351E+02  0.21749262189E+02  0.00000000000E+00 0.  1.
         12    1    4    4    0    0 -0.63052781319E+02  0.71488548949E+00 -0.83797036364E+02  0.10487186275E+03  0.00000000000E+00 0. -1.
         -5    1    5    5    0  502  0.10600701388E+03 -0.26376050461E+02  0.60058073164E+02  0.12474872818E+03  0.47000000000E+01 0.  1.
         13    1    6    6    0    0 -0.82070734283E+01 -0.45879123982E+02  0.43571388046E+02  0.63802162407E+02  0.00000000000E+00 0. -1.
        -14    1    6    6    0    0 -0.98451585883E+01  0.84760121348E+01 -0.25908894771E+02  0.28983456620E+02  0.00000000000E+00 0.  1.
</event>
<event>
12    1  0.8297444E-002  0.2484513E+03  0.7818608E-02  0.1114458E+00
         21   -1    0    0  501  502  0.00000000000E+00  0.00000000000E+00  0.23879238472E+04  0.23879238472E+04  0.00000000000E+00 0.  1.
         21   -1    0    0  502  503 -0.00000000000E+00 -0.00000000000E+00 -0.33403326008E+02  0.33403326008E+02  0.00000000000E+00 0.  1.
         -6    2    1    2    0  503 -0.13081070238E+03  0.12216635313E+03  0.59538487119E+03  0.64473315829E+03  0.17076780393E+03 0.  0.
        -24    2    3    3    0    0 -0.12719717773E+03  0.12700579323E+03  0.60194330702E+03  0.63465442714E+03  0.90226955406E+02 0.  0.
          6    2    1    2  501    0  0.13081070238E+03 -0.12216635313E+03  0.17591356500E+04  0.17765940149E+04  0.17231367052E+03 0.  0.
         24    2    5    5    0    0  0.78849853141E+01 -0.21409305022E+02  0.43017721206E+03  0.43815636810E+03  0.80050220437E+02 0.  0.
          5    1    5    5  501    0  0.12292571707E+03 -0.10075704811E+03  0.13289584379E+04  0.13384376468E+04  0.47000000000E+01 0. -1.
        -11    1    6    6    0    0  0.41457001763E+02 -0.13782961060E+02  0.31274383601E+03  0.31578055667E+03  0.00000000000E+00 0.  1.
         12    1    6    6    0    0 -0.33572016449E+02 -0.76263439625E+01  0.11743337605E+03  0.12237581143E+03  0.00000000000E+00 0. -1.
         -5    1    3    3    0  503 -0.36135246511E+01 -0.48394401011E+01 -0.65584358350E+01  0.10078731145E+02  0.47000000000E+01 0.  1.
         11    1    4    4    0    0 -0.43783870576E+02  0.54009132859E+01  0.23651800832E+03  0.24059710191E+03  0.00000000000E+00 0. -1.
        -12    1    4    4    0    0 -0.83413307156E+02  0.12160487994E+03  0.36542529870E+03  0.39405732523E+03  0.00000000000E+00 0.  1.
</event>
<event>
12    1  0.8297444E-002  0.2957679E+03  0.7818608E-02  0.1087383E+00
         21   -1    0    0  503  502  0.00000000000E+00  0.00000000000E+00  0.22917538375E+03  0.22917538375E+03  0.00000000000E+00 0.  1.
         21   -1    0    0  501  503 -0.00000000000E+00 -0.00000000000E+00 -0.45436686752E+03  0.45436686752E+03  0.00000000000E+00 0.  1.
          6    2    1    2  501    0  0.15433381173E+03 -0.18523573319E+03 -0.24934557485E+03  0.38684859913E+03  0.17131088891E+03 0.  0.
         24    2    3    3    0    0  0.16933453290E+03 -0.13530435574E+03 -0.14965150756E+03  0.27424681787E+03  0.76382528671E+02 0.  0.
         -6    2    1    2    0  502 -0.15433381173E+03  0.18523573319E+03  0.24154091075E+02  0.29669365214E+03  0.17120893905E+03 0.  0.
        -24    2    5    5    0    0 -0.15835753347E+03  0.16960892325E+03 -0.23153624947E+02  0.24648909537E+03  0.79852918137E+02 0.  0.
          5    1    3    3  501    0 -0.15000721165E+02 -0.49931377454E+02 -0.99694067289E+02  0.11260178126E+03  0.47000000000E+01 0. -1.
        -11    1    4    4    0    0  0.89778256407E+02 -0.11400853020E+03 -0.11384827120E+03  0.18444378314E+03  0.00000000000E+00 0.  1.
         12    1    4    4    0    0  0.79556276491E+02 -0.21295825534E+02 -0.35803236359E+02  0.89803034737E+02  0.00000000000E+00 0. -1.
         -5    1    5    5    0  502  0.40237217359E+01  0.15626809944E+02  0.47307716022E+02  0.50204556773E+02  0.47000000000E+01 0.  1.
         13    1    6    6    0    0 -0.10478317525E+03  0.12394917466E+03 -0.51977064749E+02  0.17042454921E+03  0.00000000000E+00 0. -1.
        -14    1    6    6    0    0 -0.53574358217E+02  0.45659748586E+02  0.28823439802E+02  0.76064546152E+02  0.00000000000E+00 0.  1.
</event>
<event>
12    1  0.8297444E-002  0.2242766E+03  0.7818608E-02  0.1130898E+00
         21   -1    0    0  503  502  0.00000000000E+00  0.00000000000E+00  0.18298750542E+04  0.18298750542E+04  0.00000000000E+00 0.  1.
         21   -1    0    0  501  503 -0.00000000000E+00 -0.00000000000E+00 -0.41854335949E+02  0.41854335949E+02  0.00000000000E+00 0.  1.
          6    2    1    2  501    0  0.33667664502E+02 -0.13886995431E+03  0.34479734567E+03  0.41132127412E+03  0.17286296630E+03 0.  0.
         24    2    3    3    0    0  0.47706014348E+02 -0.55027298016E+02  0.83226333138E+02  0.13624282917E+03  0.79571468754E+02 0.  0.
         -6    2    1    2    0  502 -0.33667664502E+02  0.13886995431E+03  0.14432233726E+04  0.14604081160E+04  0.17169678611E+03 0.  0.
        -24    2    5    5    0    0  0.40381911256E+02  0.61809323820E+02  0.53475233834E+03  0.54566039644E+03  0.79587144784E+02 0.  0.
          5    1    3    3  501    0 -0.14038349846E+02 -0.83842656292E+02  0.26157101254E+03  0.27507844496E+03  0.47000000000E+01 0. -1.
        -13    1    4    4    0    0  0.57000073328E+02 -0.55329896869E+02  0.93297615322E+02  0.12253510057E+03  0.00000000000E+00 0.  1.
         14    1    4    4    0    0 -0.92940589805E+01  0.30259885315E+00 -0.10071282185E+02  0.13707728595E+02  0.00000000000E+00 0. -1.
         -5    1    5    5    0  502 -0.74049575758E+02  0.77060630487E+02  0.90847103425E+03  0.91474771960E+03  0.47000000000E+01 0.  1.
         11    1    6    6    0    0  0.28437256301E+02  0.35892439825E+02  0.10015392055E+03  0.11012607586E+03  0.00000000000E+00 0. -1.
        -12    1    6    6    0    0  0.11944654955E+02  0.25916883995E+02  0.43459841780E+03  0.43553432059E+03  0.00000000000E+00 0.  1.
</event>
<event>
12    1  0.8297444E-002  0.1806482E+03  0.7818608E-02  0.1167903E+00
         21   -1    0    0  503  502  0.00000000000E+00  0.00000000000E+00  0.19604444986E+04  0.19604444986E+04  0.00000000000E+00 0. -1.
         21   -1    0    0  501  503 -0.00000000000E+00 -0.00000000000E+00 -0.72006340125E+02  0.72006340125E+02  0.00000000000E+00 0. -1.
          6    2    1    2  501    0 -0.45984276213E+02 -0.11104063038E+02  0.52759229078E+02  0.18819483745E+03  0.17434421905E+03 0.  0.
         24    2    3    3    0    0 -0.47810964643E+02  0.19696427584E+02  0.94835131446E+02  0.13580706623E+03  0.82316580850E+02 0.  0.
         -6    2    1    2    0  502  0.45984276213E+02  0.11104063038E+02  0.18356789294E+04  0.18442560013E+04  0.17124605843E+03 0.  0.
        -24    2    5    5    0    0  0.22553988672E+02 -0.53942774798E+02  0.79465301382E+03  0.80092617979E+03  0.81183913107E+02 0.  0.
          5    1    3    3  501    0  0.18266884299E+01 -0.30800490622E+02 -0.42075902368E+02  0.52387771219E+02  0.47000000000E+01 0. -1.
        -11    1    4    4    0    0 -0.26601150161E+02 -0.30583664246E+02  0.54629793532E+02  0.68024966372E+02  0.00000000000E+00 0.  1.
         12    1    4    4    0    0 -0.21209814482E+02  0.50280091830E+02  0.40205337914E+02  0.67782099861E+02  0.00000000000E+00 0. -1.
         -5    1    5    5    0  502  0.23430287541E+02  0.65046837837E+02  0.10410259156E+04  0.10433298215E+04  0.47000000000E+01 0.  1.
         11    1    6    6    0    0 -0.45886458812E+01 -0.12827600593E+02  0.59935973033E+03  0.59951454473E+03  0.00000000000E+00 0. -1.
        -12    1    6    6    0    0  0.27142634553E+02 -0.41115174206E+02  0.19529328349E+03  0.20141163506E+03  0.00000000000E+00 0.  1.
</event>
<event>
12    1  0.8297444E-002  0.3987737E+03  0.7818608E-02  0.1044279E+00
         21   -1    0    0  501  502  0.00000000000E+00  0.00000000000E+00  0.40630780745E+03  0.40630780745E+03  0.00000000000E+00 0.  1.
         21   -1    0    0  502  503 -0.00000000000E+00 -0.00000000000E+00 -0.40078182002E+03  0.40078182002E+03  0.00000000000E+00 0. -1.
         -6    2    1    2    0  503  0.33452975553E+03  0.12884219670E+03  0.67263124741E+02  0.40356518274E+03  0.17271380889E+03 0.  0.
        -24    2    3    3    0    0  0.99692848258E+02  0.16645554984E+02 -0.16257217851E+02  0.13018962228E+03  0.80431972011E+02 0.  0.
          6    2    1    2  501    0 -0.33452975553E+03 -0.12884219670E+03 -0.61737137305E+02  0.40352444473E+03  0.17467121796E+03 0.  0.
         24    2    5    5    0    0 -0.83199621174E+02 -0.14776808316E+02  0.11213035492E+02  0.11800462585E+03  0.81601645379E+02 0.  0.
          5    1    5    5  501    0 -0.25133013436E+03 -0.11406538838E+03 -0.72950172798E+02  0.28551981888E+03  0.47000000000E+01 0. -1.
        -11    1    6    6    0    0  0.54870174309E+01 -0.25832435911E+02 -0.57713126022E+01  0.27032020911E+02  0.00000000000E+00 0.  1.
         12    1    6    6    0    0 -0.88686638605E+02  0.11055627595E+02  0.16984348094E+02  0.90972604935E+02  0.00000000000E+00 0. -1.
         -5    1    3    3    0  503  0.23483690728E+03  0.11219664171E+03  0.83520342592E+02  0.27337556046E+03  0.47000000000E+01 0.  1.
         11    1    4    4    0    0  0.10912041643E+02  0.36494453032E+02 -0.72214417950E+01  0.38769407740E+02  0.00000000000E+00 0. -1.
        -12    1    4    4    0    0  0.88780806614E+02 -0.19848898048E+02 -0.90357760558E+01  0.91420214536E+02  0.00000000000E+00 0.  1.
</event>
<event>
12    1  0.8297444E-002  0.1817091E+03  0.7818608E-02  0.1166406E+00
         21   -1    0    0  501  502  0.00000000000E+00  0.00000000000E+00  0.64541930821E+03  0.64541930821E+03  0.00000000000E+00 0. -1.
         21   -1    0    0  502  503 -0.00000000000E+00 -0.00000000000E+00 -0.75394054540E+02  0.75394054540E+02  0.00000000000E+00 0. -1.
         -6    2    1    2    0  503 -0.57980092159E+02 -0.18168637355E+02  0.80000549630E+02  0.19854039734E+03  0.17124955756E+03 0.  0.
        -24    2    3    3    0    0  0.23152456752E+02  0.19054664104E+02  0.62077955235E+02  0.10737365969E+03  0.82318368488E+02 0.  0.
          6    2    1    2  501    0  0.57980092159E+02  0.18168637355E+02  0.49002470404E+03  0.52227296541E+03  0.17015595600E+03 0.  0.
         24    2    5    5    0    0  0.20141898982E+02  0.74129347247E+02  0.33190151338E+03  0.35026028175E+03  0.81380551572E+02 0.  0.
          5    1    5    5  501    0  0.37838193176E+02 -0.55960709892E+02  0.15812319066E+03  0.17201268366E+03  0.47000000000E+01 0. -1.
        -11    1    6    6    0    0 -0.27358131440E+02  0.37181517751E+02  0.92071705816E+02  0.10299578453E+03  0.00000000000E+00 0.  1.
         12    1    6    6    0    0  0.47500030423E+02  0.36947829496E+02  0.23982980756E+03  0.24726449723E+03  0.00000000000E+00 0. -1.
         -5    1    3    3    0  503 -0.81132548910E+02 -0.37223301458E+02  0.17922594395E+02  0.91166737651E+02  0.47000000000E+01 0.  1.
         11    1    4    4    0    0  0.38065840309E+02 -0.21850897995E+02  0.34590023754E+02  0.55883268381E+02  0.00000000000E+00 0. -1.
        -12    1    4    4    0    0 -0.14913383557E+02  0.40905562098E+02  0.27487931481E+02  0.51490391305E+02  0.00000000000E+00 0.  1.
</event>
<event>
12    1  0.8297444E-002  0.2228501E+03  0.7818608E-02  0.1131837E+00
         21   -1    0    0  503  502  0.00000000000E+00  0.00000000000E+00  0.13456516233E+03  0.13456516233E+03  0.00000000000E+00 0. -1.
         21   -1    0    0  501  503 -0.00000000000E+00 -0.00000000000E+00 -0.36948662620E+03  0.36948662620E+03  0.00000000000E+00 0.  1.
          6    2    1    2  501    0 -0.91810628128E+02 -0.10765032350E+03 -0.13038785355E+03  0.25790254455E+03  0.17174092856E+03 0.  0.
         24    2    3    3    0    0 -0.44395623235E+02 -0.41787934237E+01 -0.11801882193E+03  0.14331797679E+03  0.67993870785E+02 0.  0.
         -6    2    1    2    0  502  0.91810628128E+02  0.10765032350E+03 -0.10453361032E+03  0.24614924399E+03  0.17217546585E+03 0.  0.
        -24    2    5    5    0    0  0.78990654989E+02  0.16191431202E+02 -0.10509623088E+02  0.11427172177E+03  0.80286288982E+02 0.  0.
          5    1    3    3  501    0 -0.47415004893E+02 -0.10347153008E+03 -0.12369031629E+02  0.11458456776E+03  0.47000000000E+01 0. -1.
        -13    1    4    4    0    0  0.17710972596E+02  0.27133871744E+01 -0.35947961817E+02  0.40165868334E+02  0.00000000000E+00 0.  1.
         14    1    4    4    0    0 -0.62106595831E+02 -0.68921805981E+01 -0.82070860109E+02  0.10315210845E+03  0.00000000000E+00 0. -1.
         -5    1    5    5    0  502  0.12819973139E+02  0.91458892300E+02 -0.94023987227E+02  0.13187752222E+03  0.47000000000E+01 0.  1.
         13    1    6    6    0    0  0.18756337137E+02 -0.14706924120E+01  0.32937345479E+02  0.37931937021E+02  0.00000000000E+00 0. -1.
        -14    1    6    6    0    0  0.60234317852E+02  0.17662123614E+02 -0.43446968567E+02  0.76339784748E+02  0.00000000000E+00 0.  1.
</event>
<event>
12    1  0.8297444E-002  0.2565122E+03  0.7818608E-02  0.1109435E+00
         21   -1    0    0  501  502  0.00000000000E+00  0.00000000000E+00  0.20001907670E+03  0.20001907670E+03  0.00000000000E+00 0. -1.
         21   -1    0    0  502  503 -0.00000000000E+00 -0.00000000000E+00 -0.36589676060E+03  0.36589676060E+03  0.00000000000E+00 0. -1.
         -6    2    1    2    0  503  0.17441087319E+03  0.72675504923E+02 -0.17479970943E+03  0.31040852069E+03  0.17348668420E+03 0.  0.
        -24    2    3    3    0    0  0.29118528438E+02  0.25423617723E+02 -0.16031032108E+02  0.90017529068E+02  0.79698886521E+02 0.  0.
          6    2    1    2  501    0 -0.17441087319E+03 -0.72675504923E+02  0.89220255400E+01  0.25550731661E+03  0.17176584235E+03 0.  0.
         24    2    5    5    0    0 -0.11231644196E+03 -0.33993729959E+02 -0.58642341377E+02  0.15581262376E+03  0.84071949610E+02 0.  0.
          5    1    5    5  501    0 -0.62094431238E+02 -0.38681774964E+02  0.67564366917E+02  0.99694692848E+02  0.47000000000E+01 0. -1.
        -11    1    6    6    0    0 -0.46340494933E+02 -0.53185831734E+02 -0.50209880853E+02  0.86586409460E+02  0.00000000000E+00 0.  1.
         12    1    6    6    0    0 -0.65975947022E+02  0.19192101775E+02 -0.84324605236E+01  0.69226214301E+02  0.00000000000E+00 0. -1.
         -5    1    3    3    0  503  0.14529234476E+03  0.47251887200E+02 -0.15876867733E+03  0.22039099162E+03  0.47000000000E+01 0.  1.
         13    1    4    4    0    0  0.41840194981E+02  0.15105098377E+02 -0.40774524225E+02  0.60343415041E+02  0.00000000000E+00 0. -1.
        -14    1    4    4    0    0 -0.12721666543E+02  0.10318519347E+02  0.24743492117E+02  0.29674114027E+02  0.00000000000E+00 0.  1.
</event>
<event>
12    1  0.8297444E-002  0.2260456E+03  0.7818608E-02  0.1129565E+00
         21   -1    0    0  503  502  0.00000000000E+00  0.00000000000E+00  0.67115219894E+03  0.67115219894E+03  0.00000000000E+00 0. -1.
         21   -1    0    0  501  503 -0.00000000000E+00 -0.00000000000E+00 -0.15539107872E+03  0.15539107872E+03  0.00000000000E+00 0. -1.
          6    2    1    2  501    0  0.12551346131E+03  0.72834134791E+02 -0.37826293691E+02  0.22858372652E+03  0.17251449613E+03 0.  0.
         24    2    3    3    0    0  0.82055896271E+02  0.77340497580E+02  0.36483169140E+02  0.14225381554E+03  0.78679118737E+02 0.  0.
         -6    2    1    2    0  502 -0.12551346131E+03 -0.72834134791E+02  0.55358741392E+03  0.59795955114E+03  0.17331520357E+03 0.  0.
        -24    2    5    5    0    0 -0.14336679771E+03 -0.83753944916E+02  0.37034090510E+03  0.41346197157E+03  0.78928157000E+02 0.  0.
          5    1    3    3  501    0  0.43457565035E+02 -0.45063627891E+01 -0.74309462831E+02  0.86329910985E+02  0.47000000000E+01 0. -1.
        -13    1    4    4    0    0  0.69335808988E+02  0.37383868160E+02 -0.10284281603E+02  0.79440383022E+02  0.00000000000E+00 0.  1.
         14    1    4    4    0    0  0.12720087282E+02  0.39956629420E+02  0.46767450743E+02  0.62813432513E+02  0.00000000000E+00 0. -1.
         -5    1    5    5    0  502  0.17853336403E+02  0.10919810125E+02  0.18324650882E+03  0.18449757957E+03  0.47000000000E+01 0.  1.
         13    1    6    6    0    0 -0.29777331863E+02 -0.54214163399E+02  0.17457655234E+03  0.18521025251E+03  0.00000000000E+00 0. -1.
        -14    1    6    6    0    0 -0.11358946585E+03 -0.29539781518E+02  0.19576435275E+03  0.22825171906E+03  0.00000000000E+00 0.  1.
</event>
<event>
12    1  0.8297444E-002  0.1863257E+03  0.7818608E-02  0.1161976E+00
         21   -1    0    0  503  502  0.00000000000E+00  0.00000000000E+00  0.29624499822E+03  0.29624499822E+03  0.00000000000E+00 0. -1.
         21   -1    0    0  501  503 -0.00000000000E+00 -0.00000000000E+00 -0.11687873581E+03  0.11687873581E+03  0.00000000000E+00 0.  1.
          6    2    1    2  501    0 -0.30148336465E+02  0.66125994920E+02  0.96352640388E+02  0.20976436058E+03  0.17156831369E+03 0.  0.
         24    2    3    3    0    0 -0.23192608543E+02  0.62041543205E+02 -0.18851201825E+01  0.11108400540E+03  0.89157458482E+02 0.  0.
         -6    2    1    2    0  502  0.30148336465E+02 -0.66125994920E+02  0.83013622028E+02  0.20335937345E+03  0.17082799517E+03 0.  0.
        -24    2    5    5    0    0 -0.19512609464E+02  0.10316179147E+02  0.73139464430E+01  0.84775452069E+02  0.81524339805E+02 0.  0.
          5    1    3    3  501    0 -0.69557279220E+01  0.40844517148E+01  0.98237760571E+02  0.98680355181E+02  0.47000000000E+01 0. -1.
        -13    1    4    4    0    0 -0.21049193951E+02  0.83981769301E+02 -0.10908694497E+02  0.87264000347E+02  0.00000000000E+00 0.  1.
         14    1    4    4    0    0 -0.21434145924E+01 -0.21940226096E+02  0.90235743149E+01  0.23820005052E+02  0.00000000000E+00 0. -1.
         -5    1    5    5    0  502  0.49660945930E+02 -0.76442174067E+02  0.75699675585E+02  0.11858392138E+03  0.47000000000E+01 0.  1.
         11    1    6    6    0    0 -0.29452940662E+01  0.52538029151E+01  0.43891577677E+02  0.44302909534E+02  0.00000000000E+00 0. -1.
        -12    1    6    6    0    0 -0.16567315398E+02  0.50623762316E+01 -0.36577631233E+02  0.40472542535E+02  0.00000000000E+00 0.  1.
</event>
<event>
12    1  0.8297444E-002  0.2126368E+03  0.7818608E-02  0.1139626E+00
         21   -1    0    0  503  502  0.00000000000E+00  0.00000000000E+00  0.66544522151E+02  0.66544522151E+02  0.00000000000E+00 0.  1.
         21   -1    0    0  501  503 -0.00000000000E+00 -0.00000000000E+00 -0.68802039589E+03  0.68802039589E+03  0.00000000000E+00 0. -1.
          6    2    1    2  501    0 -0.80776188727E+02  0.97058403424E+02 -0.35732324536E+03  0.41546166294E+03  0.17024501568E+03 0.  0.
         24    2    3    3    0    0 -0.96856182696E+02  0.19039583580E+02 -0.26468767712E+03  0.29319580116E+03  0.78489397552E+02 0.  0.
         -6    2    1    2    0  502  0.80776188727E+02 -0.97058403424E+02 -0.26415262838E+03  0.33910325510E+03  0.17108267065E+03 0.  0.
        -24    2    5    5    0    0  0.10843539283E+03 -0.30865470420E+02 -0.19688522406E+03  0.24064753086E+03  0.80227993701E+02 0.  0.
          5    1    3    3  501    0  0.16079993969E+02  0.78018819844E+02 -0.92635568235E+02  0.12226586179E+03  0.47000000000E+01 0. -1.
        -13    1    4    4    0    0 -0.91522777494E+02  0.20638881761E+02 -0.26979346256E+03  0.28564119920E+03  0.00000000000E+00 0.  1.
         14    1    4    4    0    0 -0.53334052017E+01 -0.15992981811E+01  0.51057854422E+01  0.75546019551E+01  0.00000000000E+00 0. -1.
         -5    1    5    5    0  502 -0.27659204101E+02 -0.66192933003E+02 -0.67267404325E+02  0.98455724240E+02  0.47000000000E+01 0.  1.
         13    1    6    6    0    0  0.21076924705E+01 -0.12553624795E+02  0.33776167310E+01  0.13169819961E+02  0.00000000000E+00 0. -1.
        -14    1    6    6    0    0  0.10632770036E+03 -0.18311845626E+02 -0.20026284079E+03  0.22747771090E+03  0.00000000000E+00 0.  1.
</event>
<event>
12    1  0.8297444E-002  0.2053192E+03  0.7818608E-02  0.1145460E+00
         21   -1    0    0  501  502  0.00000000000E+00  0.00000000000E+00  0.14336245202E+03  0.14336245202E+03  0.00000000000E+00 0.  1.
         21   -1    0    0  502  503 -0.00000000000E+00 -0.00000000000E+00 -0.11183341196E+04  0.11183341196E+04  0.00000000000E+00 0.  1.
         -6    2    1    2    0  503  0.11144352843E+03 -0.11289578717E+01 -0.10291869594E+04  0.10493401332E+04  0.17166241071E+03 0.  0.
        -24    2    3    3    0    0 -0.22580147663E+01 -0.34554402098E+02 -0.42257130351E+03  0.43123824421E+03  0.78745230876E+02 0.  0.
          6    2    1    2  501    0 -0.11144352843E+03  0.11289578717E+01  0.54215291741E+02  0.21235643846E+03  0.17243846591E+03 0.  0.
         24    2    5    5    0    0 -0.14412055225E+03  0.20254810222E+02  0.51976644398E+02  0.17413749478E+03  0.80257738615E+02 0.  0.
          5    1    5    5  501    0  0.32677023824E+02 -0.19125852350E+02  0.22386473427E+01  0.38218943681E+02  0.47000000000E+01 0. -1.
        -13    1    6    6    0    0 -0.27878884242E+02  0.30625236397E+02  0.38699238526E+02  0.56681287506E+02  0.00000000000E+00 0.  1.
         14    1    6    6    0    0 -0.11624166801E+03 -0.10370426174E+02  0.13277405873E+02  0.11745620728E+03  0.00000000000E+00 0. -1.
         -5    1    3    3    0  503  0.11370154320E+03  0.33425444226E+02 -0.60661565585E+03  0.61810188899E+03  0.47000000000E+01 0.  1.
         13    1    4    4    0    0 -0.15515880130E+02 -0.29402262355E+02 -0.41243392118E+03  0.41377164584E+03  0.00000000000E+00 0. -1.
        -14    1    4    4    0    0  0.13257865363E+02 -0.51521397428E+01 -0.10137382332E+02  0.17466598365E+02  0.00000000000E+00 0.  1.
</event>
<event>
12    1  0.8297444E-002  0.1876739E+03  0.7818608E-02  0.1160970E+00
         21   -1    0    0  501  502  0.00000000000E+00  0.00000000000E+00  0.14940360990E+04  0.14940360990E+04  0.00000000000E+00 0.  1.
         21   -1    0    0  502  503 -0.00000000000E+00 -0.00000000000E+00 -0.23360991091E+02  0.23360991091E+02  0.00000000000E+00 0.  1.
         -6    2    1    2    0  503  0.93451751198E+01  0.68496494487E+02  0.73633502314E+03  0.75945457076E+03  0.17263509690E+03 0.  0.
        -24    2    3    3    0    0 -0.11539270493E+02  0.37837161019E+02  0.70497540764E+03  0.71065221137E+03  0.80445227516E+02 0.  0.
          6    2    1    2  501    0 -0.93451751198E+01 -0.68496494487E+02  0.73434008478E+03  0.75794251934E+03  0.17447750704E+03 0.  0.
         24    2    5    5    0    0  0.33206649449E+02 -0.55893788795E+02  0.22625511864E+03  0.24790143396E+03  0.77697780248E+02 0.  0.
          5    1    5    5  501    0 -0.42551824569E+02 -0.12602705691E+02  0.50808496613E+03  0.51004108538E+03  0.47000000000E+01 0. -1.
        -13    1    6    6    0    0  0.32710937352E+02 -0.13417554609E+01  0.15356944718E+03  0.15702031982E+03  0.00000000000E+00 0.  1.
         14    1    6    6    0    0  0.49571209735E+00 -0.54552033334E+02  0.72685671463E+02  0.90881114141E+02  0.00000000000E+00 0. -1.
         -5    1    3    3    0  503  0.20884445613E+02  0.30659333468E+02  0.31359615502E+02  0.48802359386E+02  0.47000000000E+01 0.  1.
         13    1    4    4    0    0  0.22881490536E+02 -0.99610607849E+00  0.44272676294E+03  0.44331878085E+03  0.00000000000E+00 0. -1.
        -14    1    4    4    0    0 -0.34420761029E+02  0.38833267097E+02  0.26224864470E+03  0.26733343052E+03  0.00000000000E+00 0.  1.
</event>
<event>
12    1  0.8297444E-002  0.2411304E+03  0.7818608E-02  0.1119129E+00
         21   -1    0    0  503  502  0.00000000000E+00  0.00000000000E+00  0.17785343790E+03  0.17785343790E+03  0.00000000000E+00 0. -1.
         21   -1    0    0  501  503 -0.00000000000E+00 -0.00000000000E+00 -0.35751281395E+03  0.35751281395E+03  0.00000000000E+00 0.  1.
          6    2    1    2  501    0 -0.16149604865E+03 -0.47485061429E+02 -0.10707130556E+02  0.24136798871E+03  0.17265010437E+03 0.  0.
         24    2    3    3    0    0 -0.20018605417E+02 -0.49650462989E+02 -0.25632559644E+02  0.99011343829E+02  0.79248375725E+02 0.  0.
         -6    2    1    2    0  502  0.16149604865E+03  0.47485061429E+02 -0.16895224549E+03  0.29399826314E+03  0.17191367800E+03 0.  0.
        -24    2    5    5    0    0  0.43686020495E+02  0.67497326601E+02 -0.45250975763E+02  0.12194075059E+03  0.79734173116E+02 0.  0.
          5    1    3    3  501    0 -0.14147744324E+03  0.21654015591E+01  0.14925429088E+02  0.14235664488E+03  0.47000000000E+01 0. -1.
        -11    1    4    4    0    0 -0.43266665315E+02 -0.51448910466E+02 -0.42233623405E+01  0.67356005709E+02  0.00000000000E+00 0.  1.
         12    1    4    4    0    0  0.23248059897E+02  0.17984474773E+01 -0.21409197304E+02  0.31655338120E+02  0.00000000000E+00 0. -1.
         -5    1    5    5    0  502  0.11781002816E+03 -0.20012265172E+02 -0.12370126972E+03  0.17205751255E+03  0.47000000000E+01 0.  1.
         11    1    6    6    0    0  0.61822957566E+02  0.70794939754E+02 -0.43036964458E+02  0.10337399038E+03  0.00000000000E+00 0. -1.
        -12    1    6    6    0    0 -0.18136937071E+02 -0.32976131527E+01 -0.22140113057E+01  0.18566760215E+02  0.00000000000E+00 0.  1.
</event>
<event>
12    1  0.8297444E-002  0.1942685E+03  0.7818608E-02  0.1154755E+00
         21   -1    0    0  501  502  0.00000000000E+00  0.00000000000E+00  0.14980244819E+03  0.14980244819E+03  0.00000000000E+00 0. -1.
         21   -1    0    0  502  503 -0.00000000000E+00 -0.00000000000E+00 -0.80407092600E+03  0.80407092600E+03  0.00000000000E+00 0.  1.
         -6    2    1    2    0  503  0.93304502070E+01 -0.89449880922E+02 -0.72243332583E+03  0.74799307526E+03  0.17174222504E+03 0.  0.
        -24    2    3    3    0    0 -0.15017012796E+02 -0.86396283647E+02 -0.27083767648E+03  0.29570683412E+03  0.79997851474E+02 0.  0.
          6    2    1    2  501    0 -0.93304502070E+01  0.89449880922E+02  0.68164848021E+02  0.20588029894E+03  0.17219730685E+03 0.  0.
         24    2    5    5    0    0  0.58220910546E+02  0.78099484190E+02  0.44213242322E+02  0.13316312585E+03  0.79299454192E+02 0.  0.
          5    1    5    5  501    0 -0.67551360753E+02  0.11350396732E+02  0.23951605699E+02  0.72717173082E+02  0.47000000000E+01 0. -1.
        -13    1    6    6    0    0 -0.14937088210E+02  0.15989431202E+02 -0.87326140762E+01  0.23559224583E+02  0.00000000000E+00 0.  1.
         14    1    6    6    0    0  0.73157998755E+02  0.62110052988E+02  0.52945856398E+02  0.10960390127E+03  0.00000000000E+00 0. -1.
         -5    1    3    3    0  503  0.24347463003E+02 -0.30535972751E+01 -0.45159564935E+03  0.45228624114E+03  0.47000000000E+01 0.  1.
         11    1    4    4    0    0  0.29440234191E+01 -0.15792716572E+01  0.53076592222E+01  0.62715723131E+01  0.00000000000E+00 0. -1.
        -12    1    4    4    0    0 -0.17961036216E+02 -0.84817011989E+02 -0.27614533570E+03  0.28943526180E+03  0.00000000000E+00 0.  1.
</event>
<event>
12    1  0.8297444E-002  0.2753514E+03  0.7818608E-02  0.1098555E+00
         21   -1    0    0  501  502  0.00000000000E+00  0.00000000000E+00  0.70317415718E+03  0.70317415718E+03  0.00000000000E+00 0. -1.
         21   -1    0    0  502  503 -0.00000000000E+00 -0.00000000000E+00 -0.54344410400E+03  0.54344410400E+03  0.00000000000E+00 0. -1.
         -6    2    1    2    0  503 -0.15293693041E+03  0.14789973089E+03 -0.47879079212E+03  0.55125701753E+03  0.17140490563E+03 0.  0.
        -24    2    3    3    0    0 -0.17990738640E+03  0.14593288457E+03 -0.41971878512E+03  0.48611973180E+03  0.80532357331E+02 0.  0.
          6    2    1    2  501    0  0.15293693041E+03 -0.14789973089E+03  0.63852084530E+03  0.69536124366E+03  0.17479803836E+03 0.  0.
         24    2    5    5    0    0  0.90917776399E+02 -0.87374639872E+02  0.55545368099E+03  0.57522837599E+03  0.80364936761E+02 0.  0.
          5    1    5    5  501    0  0.62019154009E+02 -0.60525091018E+02  0.83067164307E+02  0.12013286766E+03  0.47000000000E+01 0. -1.
        -13    1    6    6    0    0  0.97850449765E+02 -0.47203595869E+02  0.41408218794E+03  0.42809689132E+03  0.00000000000E+00 0.  1.
         14    1    6    6    0    0 -0.69326733656E+01 -0.40171044003E+02  0.14137149305E+03  0.14713148468E+03  0.00000000000E+00 0. -1.
         -5    1    3    3    0  503  0.26970455996E+02  0.19668463154E+01 -0.59072007002E+02  0.65137285731E+02  0.47000000000E+01 0.  1.
         13    1    4    4    0    0 -0.11836813100E+03  0.45579323055E+02 -0.19940955068E+03  0.23633166955E+03  0.00000000000E+00 0. -1.
        -14    1    4    4    0    0 -0.61539255404E+02  0.10035356152E+03 -0.22030923444E+03  0.24978806225E+03  0.00000000000E+00 0.  1.
</event>
<event>
12    1  0.8297444E-002  0.1887881E+03  0.7818608E-02  0.1159710E+00
         21   -1    0    0  503  502  0.00000000000E+00  0.00000000000E+00  0.30757023594E+03  0.30757023594E+03  0.00000000000E+00 0. -1.
         21   -1    0    0  501  503 -0.00000000000E+00 -0.00000000000E+00 -0.12191232922E+03  0.12191232922E+03  0.00000000000E+00 0. -1.
          6    2    1    2  501    0  0.74843466983E+02 -0.64510856786E+01  0.43628364682E+02  0.19376375409E+03  0.17319872153E+03 0.  0.
         24    2    3    3    0    0  0.66467307914E+02 -0.32318539373E+02  0.88824987120E+02  0.14080990738E+03  0.80468383054E+02 0.  0.
         -6    2    1    2    0  502 -0.74843466983E+02  0.64510856786E+01  0.14202954204E+03  0.23571881107E+03  0.17247552297E+03 0.  0.
        -24    2    5    5    0    0 -0.24849001787E+01  0.27028961938E+01  0.41763735671E+01  0.79913171979E+02  0.79719461757E+02 0.  0.
          5    1    3    3  501    0  0.83761590690E+01  0.25867453695E+02 -0.45196622439E+02  0.52953846709E+02  0.47000000000E+01 0. -1.
        -11    1    4    4    0    0  0.15167346830E+02  0.20335931595E+02 -0.18184994267E+00  0.25369895410E+02  0.00000000000E+00 0.  1.
         12    1    4    4    0    0  0.51299961084E+02 -0.52654470968E+02  0.89006837063E+02  0.11544001197E+03  0.00000000000E+00 0. -1.
         -5    1    5    5    0  502 -0.72358566805E+02  0.37481894847E+01  0.13785316847E+03  0.15580563909E+03  0.47000000000E+01 0.  1.
         13    1    6    6    0    0 -0.26635468913E+02  0.29044657846E+02 -0.11258617224E+02  0.40985324391E+02  0.00000000000E+00 0. -1.
        -14    1    6    6    0    0  0.24150568735E+02 -0.26341761652E+02  0.15434990791E+02  0.38927847588E+02  0.00000000000E+00 0.  1.
</event>
<event>
12    1  0.8297444E-002  0.1879650E+03  0.7818608E-02  0.1160607E+00
         21   -1    0    0  503  502  0.00000000000E+00  0.00000000000E+00  0.18095690980E+03  0.18095690980E+03  0.00000000000E+00 0. -1.
         21   -1    0    0  501  503 -0.00000000000E+00 -0.00000000000E+00 -0.20379842546E+03  0.20379842546E+03  0.00000000000E+00 0. -1.
          6    2    1    2  501    0  0.67335516250E+02 -0.35150579525E+02 -0.53849590447E+02  0.19552647438E+03  0.17193367559E+03 0.  0.
         24    2    3    3    0    0 -0.91987017085E+01  0.15958722914E+02 -0.70743308499E+02  0.10184010918E+03  0.70904831930E+02 0.  0.
         -6    2    1    2    0  502 -0.67335516250E+02  0.35150579525E+02  0.31008074782E+02  0.18922886088E+03  0.17051811076E+03 0.  0.
        -24    2    5    5    0    0 -0.78113038234E+02 -0.33441849526E+02  0.21866593615E+02  0.11903817075E+03  0.80448332094E+02 0.  0.
          5    1    3    3  501    0  0.76534217959E+02 -0.51109302439E+02  0.16893718053E+02  0.93686365198E+02  0.47000000000E+01 0. -1.
        -11    1    4    4    0    0  0.26553375721E+02  0.22641206916E+02 -0.46468373477E+02  0.58112096386E+02  0.00000000000E+00 0.  1.
         12    1    4    4    0    0 -0.35752077429E+02 -0.66824840014E+01 -0.24274935022E+02  0.43728012798E+02  0.00000000000E+00 0. -1.
         -5    1    5    5    0  502  0.10777521984E+02  0.68592429051E+02  0.91414811678E+01  0.70190690132E+02  0.47000000000E+01 0.  1.
         13    1    6    6    0    0  0.60951903519E+00  0.16948669771E+02 -0.10706175530E+02  0.20056198916E+02  0.00000000000E+00 0. -1.
        -14    1    6    6    0    0 -0.78722557270E+02 -0.50390519297E+02  0.32572769144E+02  0.98981971832E+02  0.00000000000E+00 0.  1.
</event>
<event>
12    1  0.8297444E-002  0.1867700E+03  0.7818608E-02  0.1164566E+00
         21   -1    0    0  503  502  0.00000000000E+00  0.00000000000E+00  0.17845588136E+03  0.17845588136E+03  0.00000000000E+00 0. -1.
         21   -1    0    0  501  503 -0.00000000000E+00 -0.00000000000E+00 -0.23386715373E+03  0.23386715373E+03  0.00000000000E+00 0. -1.
          6    2    1    2  501    0  0.20482860297E+02  0.97828724839E+01 -0.12559940459E+03  0.22507389087E+03  0.18538552736E+03 0.  0.
         24    2    3    3    0    0 -0.13513773887E+02 -0.59110543698E+02 -0.10628987126E+03  0.14572011335E+03  0.79121022747E+02 0.  0.
         -6    2    1    2    0  502 -0.20482860297E+02 -0.97828724839E+01  0.70188132220E+02  0.18724914422E+03  0.17210640879E+03 0.  0.
        -24    2    5    5    0    0 -0.21539309628E+02  0.41773959672E+02  0.91331813715E+02  0.13131732596E+03  0.81815245122E+02 0.  0.
          5    1    3    3  501    0  0.33996634184E+02  0.68893416182E+02 -0.19309533333E+02  0.79353777519E+02  0.47000000000E+01 0. -1.
        -11    1    4    4    0    0 -0.30595050207E+02  0.58549814832E+01 -0.23018843203E+02  0.38732480527E+02  0.00000000000E+00 0.  1.
         12    1    4    4    0    0  0.17081276321E+02 -0.64965525181E+02 -0.83271028057E+02  0.10698763282E+03  0.00000000000E+00 0. -1.
         -5    1    5    5    0  502  0.10564493308E+01 -0.51556832156E+02 -0.21143681495E+02  0.55931818264E+02  0.47000000000E+01 0.  1.
         11    1    6    6    0    0 -0.35019053884E+02 -0.67639483288E+01  0.65792845932E+02  0.74838383920E+02  0.00000000000E+00 0. -1.
        -12    1    6    6    0    0  0.13479744256E+02  0.48537908001E+02  0.25538967783E+02  0.56478942038E+02  0.00000000000E+00 0.  1.
</event>
<event>
12    1  0.8297444E-002  0.2120095E+03  0.7818608E-02  0.1140291E+00
         21   -1    0    0  503  502  0.00000000000E+00  0.00000000000E+00  0.31054079228E+03  0.31054079228E+03  0.00000000000E+00 0.  1.
         21   -1    0    0  501  503 -0.00000000000E+00 -0.00000000000E+00 -0.72833948487E+03  0.72833948487E+03  0.00000000000E+00 0.  1.
          6    2    1    2  501    0  0.67376616131E+02  0.10149849776E+03 -0.67444621311E+03  0.70698354227E+03  0.17351219330E+03 0.  0.
         24    2    3    3    0    0  0.91005356449E+02  0.12921230466E+03 -0.59678954294E+03  0.62108231479E+03  0.67879957283E+02 0.  0.
         -6    2    1    2    0  502 -0.67376616131E+02 -0.10149849776E+03  0.25664752052E+03  0.33189673487E+03  0.17159819167E+03 0.  0.
        -24    2    5    5    0    0 -0.42320357623E+02  0.10182770855E+02  0.78840324192E+02  0.12038311613E+03  0.79884894933E+02 0.  0.
          5    1    3    3  501    0 -0.23628740318E+02 -0.27713806908E+02 -0.77656670168E+02  0.85901227488E+02  0.47000000000E+01 0. -1.
        -11    1    4    4    0    0  0.42400695092E+02  0.85041544961E+02 -0.23687880932E+03  0.25522823829E+03  0.00000000000E+00 0.  1.
         12    1    4    4    0    0  0.48604661357E+02  0.44170759703E+02 -0.35991073362E+03  0.36585407650E+03  0.00000000000E+00 0. -1.
         -5    1    5    5    0  502 -0.25056258508E+02 -0.11168126861E+03  0.17780719633E+03  0.21151361874E+03  0.47000000000E+01 0.  1.
         13    1    6    6    0    0  0.68225023443E+01 -0.26679548253E+02  0.13396361055E+02  0.30623639933E+02  0.00000000000E+00 0. -1.
        -14    1    6    6    0    0 -0.49142859968E+02  0.36862319108E+02  0.65443963137E+02  0.89759476196E+02  0.00000000000E+00 0.  1.
</event>
<event>
12    1  0.8297444E-002  0.2100213E+03  0.7818608E-02  0.1142718E+00
         21   -1    0    0  503  502  0.00000000000E+00  0.00000000000E+00  0.19117117100E+04  0.19117117100E+04  0.00000000000E+00 0. -1.
         21   -1    0    0  501  503 -0.00000000000E+00 -0.00000000000E+00 -0.33411466563E+02  0.33411466563E+02  0.00000000000E+00 0.  1.
          6    2    1    2  501    0 -0.16501733425E+02  0.11062322876E+03  0.39068672081E+03  0.44355953151E+03  0.17776146442E+03 0.  0.
         24    2    3    3    0    0  0.13925594060E+02 -0.31060409804E+01  0.13018502759E+03  0.15765151970E+03  0.87762694768E+02 0.  0.
         -6    2    1    2    0  502  0.16501733425E+02 -0.11062322876E+03  0.14876135226E+04  0.15015636450E+04  0.17084958730E+03 0.  0.
        -24    2    5    5    0    0  0.58919855020E+02 -0.41264166342E+02  0.11163076696E+04  0.11214319533E+04  0.79325480992E+02 0.  0.
          5    1    3    3  501    0 -0.30427327484E+02  0.11372926974E+03  0.26050169322E+03  0.28590801182E+03  0.47000000000E+01 0. -1.
        -13    1    4    4    0    0 -0.28582183246E+02 -0.96527067817E+01  0.13049163740E+02  0.32869387302E+02  0.00000000000E+00 0.  1.
         14    1    4    4    0    0  0.42507777305E+02  0.65466658014E+01  0.11713586385E+03  0.12478213240E+03  0.00000000000E+00 0. -1.
         -5    1    5    5    0  502 -0.42418121595E+02 -0.69359062416E+02  0.37130585301E+03  0.38013169173E+03  0.47000000000E+01 0.  1.
         11    1    6    6    0    0 -0.18128050641E+02  0.20448962795E+01  0.23308473384E+03  0.23379756409E+03  0.00000000000E+00 0. -1.
        -12    1    6    6    0    0  0.77047905661E+02 -0.43309062621E+02  0.88322293575E+03  0.88763438921E+03  0.00000000000E+00 0.  1.
</event>
<event>
12    1  0.8297444E-002  0.1830157E+03  0.7818608E-02  0.1165115E+00
         21   -1    0    0  503  502  0.00000000000E+00  0.00000000000E+00  0.91274018990E+03  0.91274018990E+03  0.00000000000E+00 0.  1.
         21   -1    0    0  501  503 -0.00000000000E+00 -0.00000000000E+00 -0.41294583132E+02  0.41294583132E+02  0.00000000000E+00 0.  1.
          6    2    1    2  501    0 -0.28183859017E+02  0.51909460540E+02  0.59865842664E+03  0.62600850858E+03  0.17322187802E+03 0.  0.
         24    2    3    3    0    0 -0.12212047659E+02  0.66200869577E+01  0.55234306440E+03  0.55912481178E+03  0.85701427673E+02 0.  0.
         -6    2    1    2    0  502  0.28183859017E+02 -0.51909460540E+02  0.27278718012E+03  0.32802626445E+03  0.17233532002E+03 0.  0.
        -24    2    5    5    0    0 -0.47674737026E+02 -0.11797656977E+02  0.17258266233E+03  0.19601672402E+03  0.78903203337E+02 0.  0.
          5    1    3    3  501    0 -0.15971811358E+02  0.45289373583E+02  0.46315362249E+02  0.66883696801E+02  0.47000000000E+01 0. -1.
        -11    1    4    4    0    0  0.14208834263E+02  0.40923331843E+02  0.29526784155E+03  0.29842873239E+03  0.00000000000E+00 0.  1.
         12    1    4    4    0    0 -0.26420881922E+02 -0.34303244885E+02  0.25707522284E+03  0.26069607939E+03  0.00000000000E+00 0. -1.
         -5    1    5    5    0  502  0.75858596044E+02 -0.40111803564E+02  0.10020451779E+03  0.13200954043E+03  0.47000000000E+01 0.  1.
         11    1    6    6    0    0  0.18654285527E+02  0.11877177129E+02  0.49363077444E+02  0.54090323717E+02  0.00000000000E+00 0. -1.
        -12    1    6    6    0    0 -0.66329022553E+02 -0.23674834105E+02  0.12321958488E+03  0.14192640030E+03  0.00000000000E+00 0.  1.
</event>
<event>
12    1  0.8297444E-002  0.2642467E+03  0.7818608E-02  0.1104948E+00
         21   -1    0    0  503  502  0.00000000000E+00  0.00000000000E+00  0.55142116229E+03  0.55142116229E+03  0.00000000000E+00 0. -1.
         21   -1    0    0  501  503 -0.00000000000E+00 -0.00000000000E+00 -0.14219101869E+03  0.14219101869E+03  0.00000000000E+00 0.  1.
          6    2    1    2  501    0  0.36346020770E+02  0.19492967309E+03  0.85248818143E+02  0.27553298025E+03  0.17126719340E+03 0.  0.
         24    2    3    3    0    0  0.74220531659E+02  0.67856284729E+02  0.43631061833E+02  0.13647812689E+03  0.81298504688E+02 0.  0.
         -6    2    1    2    0  502 -0.36346020770E+02 -0.19492967309E+03  0.32398132546E+03  0.41807920073E+03  0.17466455896E+03 0.  0.
        -24    2    5    5    0    0 -0.57732579031E+02 -0.10147787749E+03  0.11374758552E+03  0.18697113426E+03  0.91590837613E+02 0.  0.
          5    1    3    3  501    0 -0.37874510889E+02  0.12707338836E+03  0.41617756311E+02  0.13905485337E+03  0.47000000000E+01 0. -1.
        -13    1    4    4    0    0 -0.12398197988E+02 -0.26657295558E+01  0.17762595284E+02  0.21825013600E+02  0.00000000000E+00 0.  1.
         14    1    4    4    0    0  0.86618729647E+02  0.70522014284E+02  0.25868466549E+02  0.11465311329E+03  0.00000000000E+00 0. -1.
         -5    1    5    5    0  502  0.21386558260E+02 -0.93451795599E+02  0.21023373994E+03  0.23110806646E+03  0.47000000000E+01 0.  1.
         13    1    6    6    0    0 -0.56072346168E+02 -0.10399583652E+03  0.12695326785E+03  0.17342541404E+03  0.00000000000E+00 0. -1.
        -14    1    6    6    0    0 -0.16602328625E+01  0.25179590278E+01 -0.13205682323E+02  0.13545720226E+02  0.00000000000E+00 0.  1.
</event>
<event>
12    1  0.8297444E-002  0.2145227E+03  0.7818608E-02  0.1138097E+00
         21   -1    0    0  503  502  0.00000000000E+00  0.00000000000E+00  0.28216694102E+03  0.28216694102E+03  0.00000000000E+00 0.  1.
         21   -1    0    0  501  503 -0.00000000000E+00 -0.00000000000E+00 -0.22497120325E+03  0.22497120325E+03  0.00000000000E+00 0.  1.
          6    2    1    2  501    0 -0.12394003893E+03  0.27355123552E+02 -0.10463811694E+03  0.23868207839E+03  0.17294670564E+03 0.  0.
         24    2    3    3    0    0 -0.13914714055E+03 -0.11714649232E+02 -0.46995882427E+02  0.16725085073E+03  0.79152222799E+02 0.  0.
         -6    2    1    2    0  502  0.12394003893E+03 -0.27355123552E+02  0.16183385472E+03  0.26845606588E+03  0.17253703006E+03 0.  0.
        -24    2    5    5    0    0  0.76964511267E+01 -0.49321884066E+02  0.44738597845E+02  0.10193729981E+03  0.76797052984E+02 0.  0.
          5    1    3    3  501    0  0.15207101624E+02  0.39069772784E+02 -0.57642234515E+02  0.71431227660E+02  0.47000000000E+01 0. -1.
        -13    1    4    4    0    0 -0.82994123039E+02  0.30606755503E+02 -0.38323029844E+02  0.96402554726E+02  0.00000000000E+00 0.  1.
         14    1    4    4    0    0 -0.56153017514E+02 -0.42321404734E+02 -0.86728525827E+01  0.70848296003E+02  0.00000000000E+00 0. -1.
         -5    1    5    5    0  502  0.11624358780E+03  0.21966760514E+02  0.11709525688E+03  0.16651876607E+03  0.47000000000E+01 0.  1.
         13    1    6    6    0    0 -0.22866939974E+02  0.58111431921E+01 -0.16789736684E+01  0.23653441220E+02  0.00000000000E+00 0. -1.
        -14    1    6    6    0    0  0.30563391100E+02 -0.55133027258E+02  0.46417571513E+02  0.78283858587E+02  0.00000000000E+00 0.  1.
</event>
<event>
12    1  0.8297444E-002  0.1758677E+03  0.7818608E-02  0.1172686E+00
         21   -1    0    0  503  502  0.00000000000E+00  0.00000000000E+00  0.58443753938E+02  0.58443753938E+02  0.00000000000E+00 0.  1.
         21   -1    0    0  501  503 -0.00000000000E+00 -0.00000000000E+00 -0.55082540382E+03  0.55082540382E+03  0.00000000000E+00 0.  1.
          6    2    1    2  501    0  0.10908970715E+02 -0.88569716251E+01 -0.17565029596E+03  0.24856083742E+03  0.17530548148E+03 0.  0.
         24    2    3    3    0    0  0.33226230698E+02  0.37011506469E+02 -0.37268790933E+02  0.10100234627E+03  0.79615809714E+02 0.  0.
         -6    2    1    2    0  502 -0.10908970715E+02  0.88569716251E+01 -0.31673135392E+03  0.36070832034E+03  0.17202991083E+03 0.  0.
        -24    2    5    5    0    0  0.32189288244E+02 -0.23472808260E+02 -0.28326575633E+03  0.29711027938E+03  0.80298856753E+02 0.  0.
          5    1    3    3  501    0 -0.22317259982E+02 -0.45868478094E+02 -0.13838150503E+03  0.14755849115E+03  0.47000000000E+01 0. -1.
        -11    1    4    4    0    0 -0.10565479383E+02  0.16915016892E+02  0.18568940881E+02  0.27249820486E+02  0.00000000000E+00 0.  1.
         12    1    4    4    0    0  0.43791710081E+02  0.20096489576E+02 -0.55837731814E+02  0.73752525782E+02  0.00000000000E+00 0. -1.
         -5    1    5    5    0  502 -0.43098258960E+02  0.32329779885E+02 -0.33465597587E+02  0.63598040966E+02  0.47000000000E+01 0.  1.
         11    1    6    6    0    0  0.30157674485E+02  0.52021562974E+01 -0.32269678630E+02  0.44473361907E+02  0.00000000000E+00 0. -1.
        -12    1    6    6    0    0  0.20316137599E+01 -0.28674964557E+02 -0.25099607770E+03  0.25263691747E+03  0.00000000000E+00 0.  1.
</event>
<event>
12    1  0.8297444E-002  0.3078134E+03  0.7818608E-02  0.1081768E+00
         21   -1    0    0  501  502  0.00000000000E+00  0.00000000000E+00  0.41729252867E+03  0.41729252867E+03  0.00000000000E+00 0. -1.
         21   -1    0    0  502  503 -0.00000000000E+00 -0.00000000000E+00 -0.27422845102E+03  0.27422845102E+03  0.00000000000E+00 0.  1.
         -6    2    1    2    0  503 -0.20574393525E+03  0.14636628072E+03 -0.75520425156E+02  0.31399183091E+03  0.17068649694E+03 0.  0.
        -24    2    3    3    0    0 -0.17938259823E+03  0.17385857332E+03 -0.81355374344E+02  0.27517324163E+03  0.81833342306E+02 0.  0.
          6    2    1    2  501    0  0.20574393525E+03 -0.14636628072E+03  0.21858450281E+03  0.37752914877E+03  0.17605515693E+03 0.  0.
         24    2    5    5    0    0  0.12766614756E+03 -0.14082227397E+02  0.82770672308E+02  0.17243722243E+03  0.79916563522E+02 0.  0.
          5    1    5    5  501    0  0.78077787688E+02 -0.13228405333E+03  0.13581383050E+03  0.20509192634E+03  0.47000000000E+01 0. -1.
        -13    1    6    6    0    0 -0.36761961458E+01 -0.24328263748E+01  0.30144740017E+02  0.30465364152E+02  0.00000000000E+00 0.  1.
         14    1    6    6    0    0  0.13134234371E+03 -0.11649401022E+02  0.52625932291E+02  0.14197185828E+03  0.00000000000E+00 0. -1.
         -5    1    3    3    0  503 -0.26361337022E+02 -0.27492292593E+02  0.58349491882E+01  0.38818589279E+02  0.47000000000E+01 0.  1.
         11    1    4    4    0    0 -0.38091713152E+02  0.24838665021E+02 -0.49750131166E+02  0.67401880107E+02  0.00000000000E+00 0. -1.
        -12    1    4    4    0    0 -0.14129088507E+03  0.14901990830E+03 -0.31605243179E+02  0.20777136153E+03  0.00000000000E+00 0.  1.
</event>
<event>
12    1  0.8297444E-002  0.2285240E+03  0.7818608E-02  0.1127731E+00
         21   -1    0    0  503  502  0.00000000000E+00  0.00000000000E+00  0.98711082320E+03  0.98711082320E+03  0.00000000000E+00 0. -1.
         21   -1    0    0  501  503 -0.00000000000E+00 -0.00000000000E+00 -0.56669408573E+02  0.56669408573E+02  0.00000000000E+00 0. -1.
          6    2    1    2  501    0  0.40751659271E+02  0.14465684653E+03  0.32984932105E+03  0.40127772111E+03  0.17215380878E+03 0.  0.
         24    2    3    3    0    0  0.55211834522E+02  0.16526091458E+02  0.13481011616E+03  0.16742099465E+03  0.80836648006E+02 0.  0.
         -6    2    1    2    0  502 -0.40751659271E+02 -0.14465684653E+03  0.60059209358E+03  0.64250251067E+03  0.17179147932E+03 0.  0.
        -24    2    5    5    0    0  0.31270285060E+02 -0.10463842973E+03  0.27897660751E+03  0.31046750494E+03  0.81456076415E+02 0.  0.
          5    1    3    3  501    0 -0.14460175251E+02  0.12813075507E+03  0.19503920489E+03  0.23385672645E+03  0.47000000000E+01 0. -1.
        -13    1    4    4    0    0  0.11083185597E+02 -0.19379766232E+02  0.13788899998E+01  0.22367692769E+02  0.00000000000E+00 0.  1.
         14    1    4    4    0    0  0.44128648925E+02  0.35905857690E+02  0.13343122616E+03  0.14505330188E+03  0.00000000000E+00 0. -1.
         -5    1    5    5    0  502 -0.72021944331E+02 -0.40018416801E+02  0.32161548607E+03  0.33203500573E+03  0.47000000000E+01 0.  1.
         13    1    6    6    0    0 -0.27194352879E+01 -0.49384480404E+02  0.21013219841E+03  0.21587441498E+03  0.00000000000E+00 0. -1.
        -14    1    6    6    0    0  0.33989720348E+02 -0.55253949323E+02  0.68844409098E+02  0.94593089965E+02  0.00000000000E+00 0.  1.
</event>
<event>
12    1  0.8297444E-002  0.2147857E+03  0.7818608E-02  0.1139066E+00
         21   -1    0    0  503  502  0.00000000000E+00  0.00000000000E+00  0.38610507278E+03  0.38610507278E+03  0.00000000000E+00 0. -1.
         21   -1    0    0  501  503 -0.00000000000E+00 -0.00000000000E+00 -0.13414393447E+03  0.13414393447E+03  0.00000000000E+00 0. -1.
          6    2    1    2  501    0  0.66721858854E+01  0.11974504106E+03  0.31930797909E+02  0.21714619217E+03  0.17818389375E+03 0.  0.
         24    2    3    3    0    0  0.32965420557E+02  0.12962626030E+03  0.71724076310E+02  0.16821187201E+03  0.72534160573E+02 0.  0.
         -6    2    1    2    0  502 -0.66721858854E+01 -0.11974504106E+03  0.22003034040E+03  0.30310281508E+03  0.17051267662E+03 0.  0.
        -24    2    5    5    0    0 -0.32873055062E+02  0.17979762505E+00  0.10133589972E+03  0.13228445328E+03  0.78419015111E+02 0.  0.
          5    1    3    3  501    0 -0.26293234672E+02 -0.98812192409E+01 -0.39793278400E+02  0.48934320155E+02  0.47000000000E+01 0. -1.
        -11    1    4    4    0    0  0.33102651359E+02  0.25969292559E+02  0.44070606410E+02  0.60929533335E+02  0.00000000000E+00 0.  1.
         12    1    4    4    0    0 -0.13723080203E+00  0.10365696774E+03  0.27653469899E+02  0.10728233868E+03  0.00000000000E+00 0. -1.
         -5    1    5    5    0  502  0.26200869177E+02 -0.11992483869E+03  0.11869444068E+03  0.17081836180E+03  0.47000000000E+01 0.  1.
         13    1    6    6    0    0 -0.26225457054E+02  0.85008929047E+01  0.11310227524E+03  0.11641376398E+03  0.00000000000E+00 0. -1.
        -14    1    6    6    0    0 -0.66475980085E+01 -0.83210952797E+01 -0.11766375525E+02  0.15870689302E+02  0.00000000000E+00 0.  1.
</event>
<event>
12    1  0.8297444E-002  0.1896774E+03  0.7818608E-02  0.1158763E+00
         21   -1    0    0  503  502  0.00000000000E+00  0.00000000000E+00  0.14418440526E+03  0.14418440526E+03  0.00000000000E+00 0. -1.
         21   -1    0    0  501  503 -0.00000000000E+00 -0.00000000000E+00 -0.30275293513E+03  0.30275293513E+03  0.00000000000E+00 0. -1.
          6    2    1    2  501    0  0.67201985715E+02  0.45874777459E+02 -0.17304484396E+03  0.25675290234E+03  0.17133864931E+03 0.  0.
         24    2    3    3    0    0  0.43016571864E+02  0.18138892488E+02 -0.11917178468E+02  0.91409537956E+02  0.77680368247E+02 0.  0.
         -6    2    1    2    0  502 -0.67201985715E+02 -0.45874777459E+02  0.14476314089E+02  0.19018443805E+03  0.17128909689E+03 0.  0.
        -24    2    5    5    0    0 -0.66082666375E+02 -0.45513869985E+02 -0.52415967531E+02  0.12311693123E+03  0.77278159575E+02 0.  0.
          5    1    3    3  501    0  0.24185413851E+02  0.27735884971E+02 -0.16112766550E+03  0.16534336439E+03  0.47000000000E+01 0. -1.
        -13    1    4    4    0    0  0.33509377112E+02  0.40184187597E+02 -0.30933571029E+02  0.60782671082E+02  0.00000000000E+00 0.  1.
         14    1    4    4    0    0  0.95071947520E+01 -0.22045295108E+02  0.19016392561E+02  0.30626866874E+02  0.00000000000E+00 0. -1.
         -5    1    5    5    0  502 -0.11193193399E+01 -0.36090747380E+00  0.66892281620E+02  0.67067506814E+02  0.47000000000E+01 0.  1.
         11    1    6    6    0    0 -0.42389776109E+02 -0.44939318019E-01  0.87715386130E+01  0.43287816158E+02  0.00000000000E+00 0. -1.
        -12    1    6    6    0    0 -0.23692890266E+02 -0.45468930667E+02 -0.61187506144E+02  0.79829115072E+02  0.00000000000E+00 0.  1.
</event>
<event>
12    1  0.8297444E-002  0.1913242E+03  0.7818608E-02  0.1159004E+00
         21   -1    0    0  503  502  0.00000000000E+00  0.00000000000E+00  0.35196206900E+03  0.35196206900E+03  0.00000000000E+00 0. -1.
         21   -1    0    0  501  503 -0.00000000000E+00 -0.00000000000E+00 -0.15102048732E+03  0.15102048732E+03  0.00000000000E+00 0. -1.
          6    2    1    2  501    0 -0.50595202381E+02 -0.47150925249E+02 -0.47143296655E+02  0.18969188806E+03  0.17022760564E+03 0.  0.
         24    2    3    3    0    0 -0.88767125984E+02 -0.22349384348E+02 -0.65553862837E+02  0.14036389267E+03  0.83818946522E+02 0.  0.
         -6    2    1    2    0  502  0.50595202381E+02  0.47150925249E+02  0.24808487834E+03  0.31329066826E+03  0.17838680360E+03 0.  0.
        -24    2    5    5    0    0  0.74392395632E+01 -0.41399503234E+02  0.14067252554E+03  0.16747187987E+03  0.80553149859E+02 0.  0.
          5    1    3    3  501    0  0.38171923603E+02 -0.24801540901E+02  0.18410566182E+02  0.49327995396E+02  0.47000000000E+01 0. -1.
        -13    1    4    4    0    0 -0.16228104945E+01 -0.70745895982E+01  0.17543594719E+02  0.18985811743E+02  0.00000000000E+00 0.  1.
         14    1    4    4    0    0 -0.87144315489E+02 -0.15274794750E+02 -0.83097457556E+02  0.12137808093E+03  0.00000000000E+00 0. -1.
         -5    1    5    5    0  502  0.43155962817E+02  0.88550428483E+02  0.10741235280E+03  0.14581878838E+03  0.47000000000E+01 0.  1.
         11    1    6    6    0    0  0.10742976880E+01 -0.17133720704E+02  0.14133761435E+03  0.14237640159E+03  0.00000000000E+00 0. -1.
        -12    1    6    6    0    0  0.63649418752E+01 -0.24265782529E+02 -0.66508880861E+00  0.25095478277E+02  0.00000000000E+00 0.  1.
</event>
<event>
12    1  0.8297444E-002  0.2003056E+03  0.7818608E-02  0.1150458E+00
         21   -1    0    0  501  502  0.00000000000E+00  0.00000000000E+00  0.28763353180E+02  0.28763353180E+02  0.00000000000E+00 0.  1.
         21   -1    0    0  502  503 -0.00000000000E+00 -0.00000000000E+00 -0.15304313125E+04  0.15304313125E+04  0.00000000000E+00 0.  1.
         -6    2    1    2    0  503  0.58239131800E+02  0.76497334598E+02 -0.10162734606E+04  0.10358253086E+04  0.17572331829E+03 0.  0.
        -24    2    3    3    0    0  0.20981951900E+02  0.43482691010E+02 -0.24638890808E+03  0.26431874459E+03  0.82619113956E+02 0.  0.
          6    2    1    2  501    0 -0.58239131800E+02 -0.76497334598E+02 -0.48539449873E+03  0.52336935707E+03  0.17048174637E+03 0.  0.
         24    2    5    5    0    0 -0.11045359737E+02 -0.16847952819E+02 -0.40294608232E+03  0.41109677699E+03  0.78925036026E+02 0.  0.
          5    1    5    5  501    0 -0.47193772062E+02 -0.59649381779E+02 -0.82448416413E+02  0.11227258008E+03  0.47000000000E+01 0. -1.
        -13    1    6    6    0    0 -0.37271523090E+02 -0.12396871191E+02 -0.10742482677E+03  0.11438069005E+03  0.00000000000E+00 0.  1.
         14    1    6    6    0    0  0.26226163353E+02 -0.44510816281E+01 -0.29552125555E+03  0.29671608695E+03  0.00000000000E+00 0. -1.
         -5    1    3    3    0  503  0.37257179900E+02  0.33014643588E+02 -0.76988455250E+03  0.77150656402E+03  0.47000000000E+01 0.  1.
         11    1    4    4    0    0  0.29107239821E+02 -0.11959259917E+02 -0.42574013476E+02  0.52941495362E+02  0.00000000000E+00 0. -1.
        -12    1    4    4    0    0 -0.81252879211E+01  0.55441950926E+02 -0.20381489461E+03  0.21137724922E+03  0.00000000000E+00 0.  1.
</event>
<event>
12    1  0.8297444E-002  0.2043934E+03  0.7818608E-02  0.1146458E+00
         21   -1    0    0  503  502  0.00000000000E+00  0.00000000000E+00  0.17373359487E+04  0.17373359487E+04  0.00000000000E+00 0.  1.
         21   -1    0    0  501  503 -0.00000000000E+00 -0.00000000000E+00 -0.23839041061E+02  0.23839041061E+02  0.00000000000E+00 0.  1.
          6    2    1    2  501    0 -0.34517782054E+02 -0.10559287093E+03  0.87372099001E+03  0.89730988693E+03  0.17156728457E+03 0.  0.
         24    2    3    3    0    0 -0.38788831202E+02 -0.60853001162E+02  0.81693285705E+03  0.82473661463E+03  0.87198219056E+02 0.  0.
         -6    2    1    2    0  502  0.34517782054E+02  0.10559287093E+03  0.83977591766E+03  0.86386510286E+03  0.16940481807E+03 0.  0.
        -24    2    5    5    0    0 -0.43533461719E+02  0.36568297500E+02  0.43776850894E+03  0.44854783250E+03  0.79507785465E+02 0.  0.
          5    1    3    3  501    0  0.42710491479E+01 -0.44739869771E+02  0.56788132962E+02  0.72573272307E+02  0.47000000000E+01 0. -1.
        -13    1    4    4    0    0 -0.60269611905E+02 -0.67486612939E+02  0.63267332637E+03  0.63911063748E+03  0.00000000000E+00 0.  1.
         14    1    4    4    0    0  0.21480780704E+02  0.66336117769E+01  0.18425953068E+03  0.18562597714E+03  0.00000000000E+00 0. -1.
         -5    1    5    5    0  502  0.78051243773E+02  0.69024573433E+02  0.40200740872E+03  0.41531727036E+03  0.47000000000E+01 0.  1.
         11    1    6    6    0    0  0.40999903422E+01  0.20556486585E+02  0.31765389059E+03  0.31834473966E+03  0.00000000000E+00 0. -1.
        -12    1    6    6    0    0 -0.47633452062E+02  0.16011810915E+02  0.12011461835E+03  0.13020309285E+03  0.00000000000E+00 0.  1.
</event>
<event>
12    1  0.8297444E-002  0.1848650E+03  0.7818608E-02  0.1163220E+00
         21   -1    0    0  503  502  0.00000000000E+00  0.00000000000E+00  0.60820620514E+03  0.60820620514E+03  0.00000000000E+00 0.  1.
         21   -1    0    0  501  503 -0.00000000000E+00 -0.00000000000E+00 -0.75773266930E+02  0.75773266930E+02  0.00000000000E+00 0.  1.
          6    2    1    2  501    0  0.52110402664E+02 -0.40668251224E+02  0.92202644352E+02  0.20658266019E+03  0.17264317867E+03 0.  0.
         24    2    3    3    0    0 -0.30882735408E+02 -0.34842120343E+01  0.77141664456E+02  0.11428186468E+03  0.78381280411E+02 0.  0.
         -6    2    1    2    0  502 -0.52110402664E+02  0.40668251224E+02  0.44023029386E+03  0.47739681188E+03  0.17244014509E+03 0.  0.
        -24    2    5    5    0    0 -0.48887251396E+02  0.49433612032E+02  0.45054081899E+03  0.46271290290E+03  0.79262573696E+02 0.  0.
          5    1    3    3  501    0  0.82993138072E+02 -0.37184039189E+02  0.15060979896E+02  0.92300795516E+02  0.47000000000E+01 0. -1.
        -13    1    4    4    0    0  0.13460140943E+02 -0.20302107347E+02  0.75500156960E+00  0.24370494133E+02  0.00000000000E+00 0.  1.
         14    1    4    4    0    0 -0.44342876351E+02  0.16817895313E+02  0.76386662886E+02  0.89911370542E+02  0.00000000000E+00 0. -1.
         -5    1    5    5    0  502 -0.32231512679E+01 -0.87653608078E+01 -0.10310525134E+02  0.14683908973E+02  0.47000000000E+01 0.  1.
         13    1    6    6    0    0 -0.34716655941E+02  0.60967696570E+02  0.20858511466E+03  0.22006829914E+03  0.00000000000E+00 0. -1.
        -14    1    6    6    0    0 -0.14170595455E+02 -0.11534084539E+02  0.24195570433E+03  0.24264460377E+03  0.00000000000E+00 0.  1.
</event>
<event>
12    1  0.8297444E-002  0.2805380E+03  0.7818608E-02  0.1095416E+00
         21   -1    0    0  501  502  0.00000000000E+00  0.00000000000E+00  0.10121941709E+04  0.10121941709E+04  0.00000000000E+00 0.  1.
         21   -1    0    0  502  503 -0.00000000000E+00 -0.00000000000E+00 -0.15117973915E+03  0.15117973915E+03  0.00000000000E+00 0.  1.
         -6    2    1    2    0  503  0.28095648357E+02 -0.21941548307E+03  0.24950291448E+02  0.28149816369E+03  0.17229677725E+03 0.  0.
        -24    2    3    3    0    0 -0.28701249428E+02 -0.14201984919E+03 -0.31620395018E+02  0.16997101763E+03  0.83047565709E+02 0.  0.
          6    2    1    2  501    0 -0.28095648357E+02  0.21941548307E+03  0.83606414035E+03  0.88187574641E+03  0.17253714285E+03 0.  0.
         24    2    5    5    0    0 -0.17116381753E+01  0.22649431082E+03  0.80600479860E+03  0.84098711936E+03  0.79454370705E+02 0.  0.
          5    1    5    5  501    0 -0.26384010181E+02 -0.70788277535E+01  0.30059341746E+02  0.40888627047E+02  0.47000000000E+01 0. -1.
        -11    1    6    6    0    0  0.29418965477E+02  0.86133017022E+02  0.40162689827E+03  0.41181128878E+03  0.00000000000E+00 0.  1.
         12    1    6    6    0    0 -0.31130603652E+02  0.14036129380E+03  0.40437790033E+03  0.42917583058E+03  0.00000000000E+00 0. -1.
         -5    1    3    3    0  503  0.56796897784E+02 -0.77395633875E+02  0.56570686465E+02  0.11152714606E+03  0.47000000000E+01 0.  1.
         11    1    4    4    0    0 -0.88229054536E+01  0.83084719408E+01  0.63080985034E+01  0.13662593947E+02  0.00000000000E+00 0. -1.
        -12    1    4    4    0    0 -0.19878343974E+02 -0.15032832113E+03 -0.37928493521E+02  0.15630842368E+03  0.00000000000E+00 0.  1.
</event>
<event>
12    1  0.8297444E-002  0.1868616E+03  0.7818608E-02  0.1161617E+00
         21   -1    0    0  503  502  0.00000000000E+00  0.00000000000E+00  0.53489757632E+03  0.53489757632E+03  0.00000000000E+00 0. -1.
         21   -1    0    0  501  503 -0.00000000000E+00 -0.00000000000E+00 -0.78536552449E+02  0.78536552449E+02  0.00000000000E+00 0. -1.
          6    2    1    2  501    0 -0.45115679568E+02 -0.51495069237E+02  0.10071104192E+03  0.21227337838E+03  0.17386807213E+03 0.  0.
         24    2    3    3    0    0 -0.36769229927E+02 -0.89885529501E+02  0.11480910018E+03  0.17026937967E+03  0.79869565445E+02 0.  0.
         -6    2    1    2    0  502  0.45115679568E+02  0.51495069237E+02  0.35564998195E+03  0.40116075039E+03  0.17249890230E+03 0.  0.
        -24    2    5    5    0    0 -0.17680390290E+02  0.52263286025E+02  0.30233255416E+03  0.31864545088E+03  0.84177804655E+02 0.  0.
          5    1    3    3  501    0 -0.83464496413E+01  0.38390460263E+02 -0.14098058263E+02  0.42003998710E+02  0.47000000000E+01 0. -1.
        -11    1    4    4    0    0 -0.18628882985E+02  0.10307404917E+02  0.34704380549E+02  0.40714517149E+02  0.00000000000E+00 0.  1.
         12    1    4    4    0    0 -0.18140346942E+02 -0.10019293442E+03  0.80104719633E+02  0.12955486252E+03  0.00000000000E+00 0. -1.
         -5    1    5    5    0  502  0.62796069858E+02 -0.76821678720E+00  0.53317427789E+02  0.82515299507E+02  0.47000000000E+01 0.  1.
         13    1    6    6    0    0 -0.86207599294E+01  0.46821494270E+02  0.62436838845E+02  0.78517059754E+02  0.00000000000E+00 0. -1.
        -14    1    6    6    0    0 -0.90596303604E+01  0.54417917551E+01  0.23989571532E+03  0.24012839113E+03  0.00000000000E+00 0.  1.
</event>
<event>
12    1  0.8297444E-002  0.4179316E+03  0.7818608E-02  0.1037756E+00
         21   -1    0    0  503  502  0.00000000000E+00  0.00000000000E+00  0.29490646680E+04  0.29490646680E+04  0.00000000000E+00 0.  1.
         21   -1    0    0  501  503 -0.00000000000E+00 -0.00000000000E+00 -0.13646329050E+03  0.13646329050E+03  0.00000000000E+00 0.  1.
          6    2    1    2  501    0 -0.60542001458E+02  0.37603896604E+03  0.24534512997E+03  0.48447596127E+03  0.17161610160E+03 0.  0.
         24    2    3    3    0    0 -0.79438080361E+02  0.23822775372E+03  0.96210799371E+02  0.28048544531E+03  0.79703800792E+02 0.  0.
         -6    2    1    2    0  502  0.60542001458E+02 -0.37603896604E+03  0.25672562475E+04  0.26010519972E+04  0.17203550185E+03 0.  0.
        -24    2    5    5    0    0  0.54740542988E+02 -0.22999592654E+03  0.11785943533E+04  0.12047117189E+04  0.79693304828E+02 0.  0.
          5    1    3    3  501    0  0.18896078903E+02  0.13781121232E+03  0.14913433060E+03  0.20399051596E+03  0.47000000000E+01 0. -1.
        -11    1    4    4    0    0 -0.55132016436E+02  0.21479690508E+03  0.10534722382E+03  0.24551025892E+03  0.00000000000E+00 0.  1.
         12    1    4    4    0    0 -0.24306063925E+02  0.23430848642E+02 -0.91364244441E+01  0.34975186393E+02  0.00000000000E+00 0. -1.
         -5    1    5    5    0  502  0.58014584705E+01 -0.14604303950E+03  0.13886618942E+04  0.13963402783E+04  0.47000000000E+01 0.  1.
         13    1    6    6    0    0  0.17075993227E+02 -0.77543568704E+02  0.23278009578E+03  0.24594952243E+03  0.00000000000E+00 0. -1.
        -14    1    6    6    0    0  0.37664549761E+02 -0.15245235784E+03  0.94581425748E+03  0.95876219646E+03  0.00000000000E+00 0.  1.
</event>
<event>
12    1  0.8297444E-002  0.1814855E+03  0.7818608E-02  0.1166392E+00
         21   -1    0    0  503  502  0.00000000000E+00  0.00000000000E+00  0.45661823713E+03  0.45661823713E+03  0.00000000000E+00 0. -1.
         21   -1    0    0  501  503 -0.00000000000E+00 -0.00000000000E+00 -0.97140120369E+02  0.97140120369E+02  0.00000000000E+00 0. -1.
          6    2    1    2  501    0  0.38990393562E+02  0.44320980670E+02  0.39194961243E+02  0.18566966506E+03  0.17161695551E+03 0.  0.
         24    2    3    3    0    0  0.59958014291E+02  0.48655488146E+02 -0.28265956528E+02  0.11473663678E+03  0.80020069463E+02 0.  0.
         -6    2    1    2    0  502 -0.38990393562E+02 -0.44320980670E+02  0.32028315552E+03  0.36808869244E+03  0.17153246246E+03 0.  0.
        -24    2    5    5    0    0 -0.19111327868E+02 -0.57803331428E+02  0.32768219169E+03  0.34251943803E+03  0.78977710152E+02 0.  0.
          5    1    3    3  501    0 -0.20967620729E+02 -0.43345074763E+01  0.67460917771E+02  0.70933028277E+02  0.47000000000E+01 0. -1.
        -11    1    4    4    0    0  0.38467103265E+02  0.18363215888E+02  0.25289174253E+02  0.49562768947E+02  0.00000000000E+00 0.  1.
         12    1    4    4    0    0  0.21490911027E+02  0.30292272258E+02 -0.53555130782E+02  0.65173867833E+02  0.00000000000E+00 0. -1.
         -5    1    5    5    0  502 -0.19879065694E+02  0.13482350758E+02 -0.73990361712E+01  0.25569254410E+02  0.47000000000E+01 0.  1.
         13    1    6    6    0    0 -0.36134978652E+02  0.33008816228E+01  0.12043345727E+03  0.12578096093E+03  0.00000000000E+00 0. -1.
        -14    1    6    6    0    0  0.17023650783E+02 -0.61104213051E+02  0.20724873442E+03  0.21673847710E+03  0.00000000000E+00 0.  1.
</event>
<event>
12    1  0.8297444E-002  0.1773799E+03  0.7818608E-02  0.1170406E+00
         21   -1    0    0  501  502  0.00000000000E+00  0.00000000000E+00  0.35942352656E+03  0.35942352656E+03  0.00000000000E+00 0.  1.
         21   -1    0    0  502  503 -0.00000000000E+00 -0.00000000000E+00 -0.45923205605E+03  0.45923205605E+03  0.00000000000E+00 0.  1.
         -6    2    1    2    0  503 -0.43601206425E+02 -0.58508950957E+01 -0.41820537953E+03  0.45426796272E+03  0.17183813404E+03 0.  0.
        -24    2    3    3    0    0 -0.59293651110E+02 -0.58221722601E+02 -0.27688811435E+03  0.30267107676E+03  0.89650693230E+02 0.  0.
          6    2    1    2  501    0  0.43601206425E+02  0.58508950957E+01  0.31839685004E+03  0.36438761988E+03  0.17165804737E+03 0.  0.
         24    2    5    5    0    0 -0.39603558943E+02 -0.55158884743E+01  0.20224235351E+03  0.22097843672E+03  0.79565275315E+02 0.  0.
          5    1    5    5  501    0  0.83204765368E+02  0.11366783570E+02  0.11615449653E+03  0.14340918315E+03  0.47000000000E+01 0. -1.
        -11    1    6    6    0    0  0.16467860683E+02 -0.18875853381E+01  0.12140457883E+03  0.12253091518E+03  0.00000000000E+00 0.  1.
         12    1    6    6    0    0 -0.56071419626E+02 -0.36283031362E+01  0.80837774681E+02  0.98447521543E+02  0.00000000000E+00 0. -1.
         -5    1    3    3    0  503  0.15692444685E+02  0.52370827505E+02 -0.14131726518E+03  0.15159688596E+03  0.47000000000E+01 0.  1.
         11    1    4    4    0    0 -0.92093854048E+01 -0.62256789542E+02 -0.20861485008E+03  0.21790106998E+03  0.00000000000E+00 0. -1.
        -12    1    4    4    0    0 -0.50084265705E+02  0.40350669410E+01 -0.68273264269E+02  0.84770006786E+02  0.00000000000E+00 0.  1.
</event>
<event>
12    1  0.8297444E-002  0.2408990E+03  0.7818608E-02  0.1120131E+00
         21   -1    0    0  503  502  0.00000000000E+00  0.00000000000E+00  0.81937422635E+03  0.81937422635E+03  0.00000000000E+00 0. -1.
         21   -1    0    0  501  503 -0.00000000000E+00 -0.00000000000E+00 -0.11512372120E+03  0.11512372120E+03  0.00000000000E+00 0.  1.
          6    2    1    2  501    0 -0.15879932548E+03  0.54889254517E+02  0.59490906519E+02  0.24813606849E+03  0.17263338174E+03 0.  0.
         24    2    3    3    0    0 -0.13460782766E+03  0.10256458678E+03  0.60180714556E+02  0.19446362017E+03  0.74536027782E+02 0.  0.
         -6    2    1    2    0  502  0.15879932548E+03 -0.54889254517E+02  0.64475959863E+03  0.68636187906E+03  0.16476538765E+03 0.  0.
        -24    2    5    5    0    0  0.39600393169E+02 -0.42217813548E+02  0.42343448476E+03  0.43461627947E+03  0.79019064672E+02 0.  0.
          5    1    3    3  501    0 -0.24191497820E+02 -0.47675332261E+02 -0.68980803647E+00  0.53672448315E+02  0.47000000000E+01 0. -1.
        -13    1    4    4    0    0 -0.73360054324E+02  0.91654514206E+02  0.60886880377E+02  0.13224772114E+03  0.00000000000E+00 0.  1.
         14    1    4    4    0    0 -0.61247773334E+02  0.10910072572E+02 -0.70616582143E+00  0.62215899030E+02  0.00000000000E+00 0. -1.
         -5    1    5    5    0  502  0.11919893231E+03 -0.12671440969E+02  0.22132511387E+03  0.25174559959E+03  0.47000000000E+01 0.  1.
         13    1    6    6    0    0  0.11419571455E+02  0.21686980520E+02  0.16907422871E+03  0.17084152467E+03  0.00000000000E+00 0. -1.
        -14    1    6    6    0    0  0.28180821714E+02 -0.63904794068E+02  0.25436025605E+03  0.26377475481E+03  0.00000000000E+00 0.  1.
</event>
<event>
12    1  0.8297444E-002  0.1865771E+03  0.7818608E-02  0.1161776E+00
         21   -1    0    0  503  502  0.00000000000E+00  0.00000000000E+00  0.24369413802E+03  0.24369413802E+03  0.00000000000E+00 0.  1.
         21   -1    0    0  501  503 -0.00000000000E+00 -0.00000000000E+00 -0.31422740596E+03  0.31422740596E+03  0.00000000000E+00 0.  1.
          6    2    1    2  501    0 -0.27492509074E+01  0.72058170850E+02 -0.24169536581E+03  0.30533203819E+03  0.17207866028E+03 0.  0.
         24    2    3    3    0    0 -0.63521886719E+02  0.44564211340E+02 -0.10489414327E+03  0.15306288320E+03  0.80027906985E+02 0.  0.
         -6    2    1    2    0  502  0.27492509074E+01 -0.72058170850E+02  0.17116209788E+03  0.25258950579E+03  0.17118719672E+03 0.  0.
        -24    2    5    5    0    0 -0.29146510287E+02  0.25145791521E+02  0.69009044254E+02  0.10794066810E+03  0.73533052072E+02 0.  0.
          5    1    3    3  501    0  0.60772635812E+02  0.27493959511E+02 -0.13680122254E+03  0.15226915499E+03  0.47000000000E+01 0. -1.
        -11    1    4    4    0    0 -0.24921386035E+00  0.37752178248E+02 -0.72299529272E+02  0.81562926645E+02  0.00000000000E+00 0.  1.
         12    1    4    4    0    0 -0.63272672859E+02  0.68120330913E+01 -0.32594613996E+02  0.71499956553E+02  0.00000000000E+00 0. -1.
         -5    1    5    5    0  502  0.31895761194E+02 -0.97203962372E+02  0.10215305362E+03  0.14464883770E+03  0.47000000000E+01 0.  1.
         13    1    6    6    0    0 -0.77562530440E+01  0.40161214790E+02  0.70777212533E+02  0.81746537839E+02  0.00000000000E+00 0. -1.
        -14    1    6    6    0    0 -0.21390257243E+02 -0.15015423268E+02 -0.17681682796E+01  0.26194130257E+02  0.00000000000E+00 0.  1.
</event>
<event>
12    1  0.8297444E-002  0.3074927E+03  0.7818608E-02  0.1081721E+00
         21   -1    0    0  501  502  0.00000000000E+00  0.00000000000E+00  0.84271269939E+03  0.84271269939E+03  0.00000000000E+00 0. -1.
         21   -1    0    0  502  503 -0.00000000000E+00 -0.00000000000E+00 -0.16008943368E+03  0.16008943368E+03  0.00000000000E+00 0.  1.
         -6    2    1    2    0  503 -0.58303349664E+02 -0.24673979150E+03  0.65109926470E+02  0.31296554986E+03  0.17154686702E+03 0.  0.
        -24    2    3    3    0    0 -0.10343495724E+03 -0.20898704502E+03  0.60642007528E+02  0.25376939991E+03  0.79668562751E+02 0.  0.
          6    2    1    2  501    0  0.58303349664E+02  0.24673979150E+03  0.61751333925E+03  0.68983658321E+03  0.17398845390E+03 0.  0.
         24    2    5    5    0    0  0.40968132769E+02  0.26367746920E+03  0.52919806150E+03  0.59813558565E+03  0.80693214412E+02 0.  0.
          5    1    5    5  501    0  0.17335216895E+02 -0.16937677700E+02  0.88315277743E+02  0.91700997560E+02  0.47000000000E+01 0. -1.
        -13    1    6    6    0    0  0.36891835026E+02  0.42656364839E+02  0.85594763253E+02  0.10250383627E+03  0.00000000000E+00 0.  1.
         14    1    6    6    0    0  0.40762977434E+01  0.22102110436E+03  0.44360329825E+03  0.49563174938E+03  0.00000000000E+00 0. -1.
         -5    1    3    3    0  503  0.45131607572E+02 -0.37752746479E+02  0.44679189415E+01  0.59196149946E+02  0.47000000000E+01 0.  1.
         11    1    4    4    0    0 -0.51696287606E+02 -0.95817287105E+02  0.69258373325E+02  0.12903558012E+03  0.00000000000E+00 0. -1.
        -12    1    4    4    0    0 -0.51738669630E+02 -0.11316975792E+03 -0.86163657961E+01  0.12473381980E+03  0.00000000000E+00 0.  1.
</event>
<event>
12    1  0.8297444E-002  0.1758627E+03  0.7818608E-02  0.1172374E+00
         21   -1    0    0  501  502  0.00000000000E+00  0.00000000000E+00  0.94996045638E+03  0.94996045638E+03  0.00000000000E+00 0. -1.
         21   -1    0    0  502  503 -0.00000000000E+00 -0.00000000000E+00 -0.60067422179E+02  0.60067422179E+02  0.00000000000E+00 0. -1.
         -6    2    1    2    0  503 -0.18437071309E+02 -0.18137100875E+02  0.10224968412E+03  0.20342733647E+03  0.17395057716E+03 0.  0.
        -24    2    3    3    0    0  0.35344693189E+02  0.24296856191E+02  0.10044240428E+03  0.13473617863E+03  0.78902323782E+02 0.  0.
          6    2    1    2  501    0  0.18437071309E+02  0.18137100875E+02  0.78764335008E+03  0.80660054208E+03  0.17191133628E+03 0.  0.
         24    2    5    5    0    0 -0.45188989283E+02 -0.58757394646E+01  0.59564440686E+03  0.60285909739E+03  0.81057157735E+02 0.  0.
          5    1    5    5  501    0  0.63626060592E+02  0.24012840340E+02  0.19199894322E+03  0.20374144469E+03  0.47000000000E+01 0. -1.
        -13    1    6    6    0    0 -0.22734356728E+02  0.12640482991E+02  0.49313491387E+02  0.55753504095E+02  0.00000000000E+00 0.  1.
         14    1    6    6    0    0 -0.22454632555E+02 -0.18516222456E+02  0.54633091547E+03  0.54710559330E+03  0.00000000000E+00 0. -1.
         -5    1    3    3    0  503 -0.53781764498E+02 -0.42433957066E+02  0.18072798420E+01  0.68691157839E+02  0.47000000000E+01 0.  1.
         11    1    4    4    0    0  0.49983147307E+02  0.33753216064E+02  0.41346075766E+02  0.73123816849E+02  0.00000000000E+00 0. -1.
        -12    1    4    4    0    0 -0.14638454118E+02 -0.94563598729E+01  0.59096328511E+02  0.61612361783E+02  0.00000000000E+00 0.  1.
</event>
<event>
12    1  0.8297444E-002  0.1957978E+03  0.7818608E-02  0.1153472E+00
         21   -1    0    0  501  502  0.00000000000E+00  0.00000000000E+00  0.41605802789E+02  0.41605802789E+02  0.00000000000E+00 0.  1.
         21   -1    0    0  502  503 -0.00000000000E+00 -0.00000000000E+00 -0.11122502060E+04  0.11122502060E+04  0.00000000000E+00 0.  1.
         -6    2    1    2    0  503  0.49416718875E+02 -0.79531057913E+02 -0.77543690382E+03  0.79961847562E+03  0.17123116968E+03 0.  0.
        -24    2    3    3    0    0  0.59352427732E+02 -0.12487289882E+02 -0.26111133692E+03  0.28082519896E+03  0.83695991638E+02 0.  0.
          6    2    1    2  501    0 -0.49416718875E+02  0.79531057913E+02 -0.29520749941E+03  0.35423753318E+03  0.17195802084E+03 0.  0.
         24    2    5    5    0    0 -0.94477119373E+02  0.78128736303E+02 -0.25435481156E+03  0.29321755036E+03  0.79057802632E+02 0.  0.
          5    1    5    5  501    0  0.45060400498E+02  0.14023216094E+01 -0.40852687849E+02  0.61019982821E+02  0.47000000000E+01 0. -1.
        -13    1    6    6    0    0 -0.22535029053E+02  0.12119856611E+01 -0.12201972342E+03  0.12408911857E+03  0.00000000000E+00 0.  1.
         14    1    6    6    0    0 -0.71942090319E+02  0.76916750642E+02 -0.13233508814E+03  0.16912843180E+03  0.00000000000E+00 0. -1.
         -5    1    3    3    0  503 -0.99357088571E+01 -0.67043768031E+02 -0.51432556690E+03  0.51879327666E+03  0.47000000000E+01 0.  1.
         11    1    4    4    0    0 -0.11064343282E+02  0.22233914665E+02 -0.64833760055E+02  0.69427538459E+02  0.00000000000E+00 0. -1.
        -12    1    4    4    0    0  0.70416771013E+02 -0.34721204547E+02 -0.19627757686E+03  0.21139766050E+03  0.00000000000E+00 0.  1.
</event>
<event>
12    1  0.8297444E-002  0.2045306E+03  0.7818608E-02  0.1146028E+00
         21   -1    0    0  501  502  0.00000000000E+00  0.00000000000E+00  0.50345770171E+03  0.50345770171E+03  0.00000000000E+00 0. -1.
         21   -1    0    0  502  503 -0.00000000000E+00 -0.00000000000E+00 -0.11993109080E+03  0.11993109080E+03  0.00000000000E+00 0.  1.
         -6    2    1    2    0  503 -0.10934707114E+03  0.14853940766E+02  0.36468757625E+03  0.41799241558E+03  0.17188138262E+03 0.  0.
        -24    2    3    3    0    0  0.43995003784E+01  0.17877959975E+02  0.24701331134E+03  0.25423421015E+03  0.57275479709E+02 0.  0.
          6    2    1    2  501    0  0.10934707114E+03 -0.14853940766E+02  0.18839034656E+02  0.20539637693E+03  0.17220726148E+03 0.  0.
         24    2    5    5    0    0  0.85162345651E+02 -0.74047074325E+02  0.10473546517E+02  0.14073727549E+03  0.83436749708E+02 0.  0.
          5    1    5    5  501    0  0.24184725486E+02  0.59193133559E+02  0.83654881388E+01  0.64659101441E+02  0.47000000000E+01 0. -1.
        -13    1    6    6    0    0  0.46582829937E+02 -0.65933995860E+02  0.41311333427E+02  0.90685600426E+02  0.00000000000E+00 0.  1.
         14    1    6    6    0    0  0.38579515714E+02 -0.81130784650E+01 -0.30837786910E+02  0.50051675061E+02  0.00000000000E+00 0. -1.
         -5    1    3    3    0  503 -0.11374657152E+03 -0.30240192086E+01  0.11767426491E+03  0.16375820543E+03  0.47000000000E+01 0.  1.
         11    1    4    4    0    0 -0.19360717736E+02  0.18807083469E+01  0.18389081618E+03  0.18491675622E+03  0.00000000000E+00 0. -1.
        -12    1    4    4    0    0  0.23760218114E+02  0.15997251628E+02  0.63122495157E+02  0.69317453930E+02  0.00000000000E+00 0.  1.
</event>
<event>
12    1  0.8297444E-002  0.2222859E+03  0.7818608E-02  0.1132746E+00
         21   -1    0    0  503  502  0.00000000000E+00  0.00000000000E+00  0.88839684132E+02  0.88839684132E+02  0.00000000000E+00 0. -1.
         21   -1    0    0  501  503 -0.00000000000E+00 -0.00000000000E+00 -0.77459007495E+03  0.77459007495E+03  0.00000000000E+00 0. -1.
          6    2    1    2  501    0  0.55647752027E+02  0.13035029877E+03 -0.57766088528E+03  0.61895323128E+03  0.17123998202E+03 0.  0.
         24    2    3    3    0    0 -0.33671306252E+02  0.70908291509E+02 -0.34335501113E+03  0.36120804887E+03  0.80105232220E+02 0.  0.
         -6    2    1    2    0  502 -0.55647752027E+02 -0.13035029877E+03 -0.10808950554E+03  0.24447652780E+03  0.16732471049E+03 0.  0.
        -24    2    5    5    0    0 -0.69586786898E+02 -0.10525127001E+03 -0.22035547768E+02  0.15363803603E+03  0.84846508485E+02 0.  0.
          5    1    3    3  501    0  0.89319058279E+02  0.59442007257E+02 -0.23430587415E+03  0.25774518241E+03  0.47000000000E+01 0. -1.
        -13    1    4    4    0    0 -0.49432023116E+02  0.11658263467E+02 -0.14991157974E+03  0.15828114782E+03  0.00000000000E+00 0.  1.
         14    1    4    4    0    0  0.15760716864E+02  0.59250028041E+02 -0.19344343140E+03  0.20292690105E+03  0.00000000000E+00 0. -1.
         -5    1    5    5    0  502  0.13939034870E+02 -0.25099028758E+02 -0.86053957770E+02  0.90838491762E+02  0.47000000000E+01 0.  1.
         11    1    6    6    0    0 -0.27360745958E+02 -0.14016703591E+02 -0.41088384856E+02  0.51316018640E+02  0.00000000000E+00 0. -1.
        -12    1    6    6    0    0 -0.42226040940E+02 -0.91234566417E+02  0.19052837088E+02  0.10232201740E+03  0.00000000000E+00 0.  1.
</event>
<event>
12    1  0.8297444E-002  0.2439510E+03  0.7818608E-02  0.1117398E+00
         21   -1    0    0  501  502  0.00000000000E+00  0.00000000000E+00  0.68410863373E+02  0.68410863373E+02  0.00000000000E+00 0. -1.
         21   -1    0    0  502  503 -0.00000000000E+00 -0.00000000000E+00 -0.87400330189E+03  0.87400330189E+03  0.00000000000E+00 0. -1.
         -6    2    1    2    0  503  0.16062026703E+03 -0.61232145461E+02 -0.44861417403E+03  0.51004210940E+03  0.17128931782E+03 0.  0.
        -24    2    3    3    0    0  0.11669957822E+03  0.76903216455E+01 -0.36837147968E+03  0.39541090346E+03  0.83512292104E+02 0.  0.
          6    2    1    2  501    0 -0.16062026703E+03  0.61232145461E+02 -0.35697826449E+03  0.43237205586E+03  0.17310074395E+03 0.  0.
         24    2    5    5    0    0 -0.97789483818E+02  0.10132376796E+03 -0.28899197867E+03  0.33138061775E+03  0.80420525859E+02 0.  0.
          5    1    5    5  501    0 -0.62830783216E+02 -0.40091622502E+02 -0.67986285811E+02  0.10099143812E+03  0.47000000000E+01 0. -1.
        -13    1    6    6    0    0 -0.13128661624E+02  0.71009488534E+02 -0.13162646856E+03  0.15013406157E+03  0.00000000000E+00 0.  1.
         14    1    6    6    0    0 -0.84660822194E+02  0.30314279429E+02 -0.15736551011E+03  0.18124655617E+03  0.00000000000E+00 0. -1.
         -5    1    3    3    0  503  0.43920688815E+02 -0.68922467106E+02 -0.80242694351E+02  0.11463120594E+03  0.47000000000E+01 0.  1.
         11    1    4    4    0    0  0.28399111058E+02 -0.85600827547E+01 -0.21998915261E+03  0.22197975536E+03  0.00000000000E+00 0. -1.
        -12    1    4    4    0    0  0.88300467162E+02  0.16250404400E+02 -0.14838232707E+03  0.17343114810E+03  0.00000000000E+00 0.  1.
</event>
<event>
12    1  0.8297444E-002  0.1841313E+03  0.7818608E-02  0.1163964E+00
         21   -1    0    0  503  502  0.00000000000E+00  0.00000000000E+00  0.61747106654E+03  0.61747106654E+03  0.00000000000E+00 0. -1.
         21   -1    0    0  501  503 -0.00000000000E+00 -0.00000000000E+00 -0.56505274520E+02  0.56505274520E+02  0.00000000000E+00 0. -1.
          6    2    1    2  501    0 -0.66355260518E+02  0.24788949754E+01  0.22130302100E+03  0.28761495989E+03  0.17128389454E+03 0.  0.
         24    2    3    3    0    0 -0.69076695794E+02 -0.30692906003E+01  0.24095774560E+03  0.26648236014E+03  0.90394704796E+02 0.  0.
         -6    2    1    2    0  502  0.66355260518E+02 -0.24788949754E+01  0.33966277101E+03  0.38636138116E+03  0.17174153057E+03 0.  0.
        -24    2    5    5    0    0  0.95067490248E+02  0.14655547322E+02  0.32720574875E+03  0.35037181806E+03  0.80275750406E+02 0.  0.
          5    1    3    3  501    0  0.27214352759E+01  0.55481855757E+01 -0.19654724599E+02  0.21132599750E+02  0.47000000000E+01 0. -1.
        -11    1    4    4    0    0 -0.25525455255E+01 -0.81613888722E+01 -0.61454507107E+01  0.10530447351E+02  0.00000000000E+00 0.  1.
         12    1    4    4    0    0 -0.66524150268E+02  0.50920982719E+01  0.24710319631E+03  0.25595191279E+03  0.00000000000E+00 0. -1.
         -5    1    5    5    0  502 -0.28712229730E+02 -0.17134442297E+02  0.12457022260E+02  0.35989563105E+02  0.47000000000E+01 0.  1.
         13    1    6    6    0    0  0.24967837198E+02 -0.30115434342E+02  0.71827233960E+02  0.81789264689E+02  0.00000000000E+00 0. -1.
        -14    1    6    6    0    0  0.70099653050E+02  0.44770981663E+02  0.25537851479E+03  0.26858255337E+03  0.00000000000E+00 0.  1.
</event>
<event>
12    1  0.8297444E-002  0.1969709E+03  0.7818608E-02  0.1152534E+00
         21   -1    0    0  503  502  0.00000000000E+00  0.00000000000E+00  0.54394195517E+03  0.54394195517E+03  0.00000000000E+00 0.  1.
         21   -1    0    0  501  503 -0.00000000000E+00 -0.00000000000E+00 -0.10941348493E+03  0.10941348493E+03  0.00000000000E+00 0. -1.
          6    2    1    2  501    0  0.37474172908E+02 -0.86759598388E+02  0.23266019415E+02  0.19735726854E+03  0.17168879474E+03 0.  0.
         24    2    3    3    0    0  0.10128787280E+02 -0.10286162507E+03  0.63962370645E+02  0.14553711434E+03  0.80042242266E+02 0.  0.
         -6    2    1    2    0  502 -0.37474172908E+02  0.86759598388E+02  0.41126245083E+03  0.45599817156E+03  0.17281778688E+03 0.  0.
        -24    2    5    5    0    0 -0.18099468981E+02  0.12254144278E+03  0.36824467668E+03  0.39659835310E+03  0.79637402045E+02 0.  0.
          5    1    3    3  501    0  0.27345385627E+02  0.16102026683E+02 -0.40696351231E+02  0.51820154206E+02  0.47000000000E+01 0. -1.
        -11    1    4    4    0    0  0.42840515399E+02 -0.34742309198E+02  0.26404842100E+02  0.61151888723E+02  0.00000000000E+00 0.  1.
         12    1    4    4    0    0 -0.32711728119E+02 -0.68119315873E+02  0.37557528545E+02  0.84385225614E+02  0.00000000000E+00 0. -1.
         -5    1    5    5    0  502 -0.19374703927E+02 -0.35781844394E+02  0.43017774144E+02  0.59399818458E+02  0.47000000000E+01 0.  1.
         11    1    6    6    0    0  0.19636570485E+01 -0.93981526423E+01  0.59137390584E+02  0.59911703258E+02  0.00000000000E+00 0. -1.
        -12    1    6    6    0    0 -0.20063126030E+02  0.13193959542E+03  0.30910728610E+03  0.33668664985E+03  0.00000000000E+00 0.  1.
</event>
<event>
12    1  0.8297444E-002  0.2627170E+03  0.7818608E-02  0.1105796E+00
         21   -1    0    0  501  502  0.00000000000E+00  0.00000000000E+00  0.12782790837E+03  0.12782790837E+03  0.00000000000E+00 0.  1.
         21   -1    0    0  502  503 -0.00000000000E+00 -0.00000000000E+00 -0.56899950896E+03  0.56899950896E+03  0.00000000000E+00 0.  1.
         -6    2    1    2    0  503  0.16051411365E+03  0.11335048642E+03 -0.13762817121E+03  0.29658339661E+03  0.17437627184E+03 0.  0.
        -24    2    3    3    0    0  0.18962810659E+03  0.10508769879E+03 -0.12093322734E+03  0.26170203490E+03  0.82830346809E+02 0.  0.
          6    2    1    2  501    0 -0.16051411365E+03 -0.11335048642E+03 -0.30354342938E+03  0.40024402071E+03  0.17159122688E+03 0.  0.
         24    2    5    5    0    0 -0.13708788484E+03 -0.11507075938E+03 -0.31686491361E+03  0.37283417800E+03  0.81040625459E+02 0.  0.
          5    1    5    5  501    0 -0.23426228817E+02  0.17202729611E+01  0.13321484226E+02  0.27409842715E+02  0.47000000000E+01 0. -1.
        -13    1    6    6    0    0 -0.37739960069E+02 -0.55386647018E+01 -0.12442232508E+03  0.13013798973E+03  0.00000000000E+00 0.  1.
         14    1    6    6    0    0 -0.99347924768E+02 -0.10953209468E+03 -0.19244258852E+03  0.24269618826E+03  0.00000000000E+00 0. -1.
         -5    1    3    3    0  503 -0.29113992933E+02  0.82627876280E+01 -0.16694943873E+02  0.34881361711E+02  0.47000000000E+01 0.  1.
         11    1    4    4    0    0  0.59972891257E+02  0.65636974966E+02 -0.81362386875E+02  0.12051887058E+03  0.00000000000E+00 0. -1.
        -12    1    4    4    0    0  0.12965521533E+03  0.39450723825E+02 -0.39570840466E+02  0.14118316432E+03  0.00000000000E+00 0.  1.
</event>
<event>
12    1  0.8297444E-002  0.2605147E+03  0.7818608E-02  0.1106836E+00
         21   -1    0    0  501  502  0.00000000000E+00  0.00000000000E+00  0.19171467894E+04  0.19171467894E+04  0.00000000000E+00 0. -1.
         21   -1    0    0  502  503 -0.00000000000E+00 -0.00000000000E+00 -0.45209057035E+02  0.45209057035E+02  0.00000000000E+00 0. -1.
         -6    2    1    2    0  503  0.10042113598E+03  0.16802094320E+03  0.47888180230E+03  0.54514987923E+03  0.17188708020E+03 0.  0.
        -24    2    3    3    0    0  0.63639811881E+02  0.14002849110E+03  0.46572138434E+03  0.49686189130E+03  0.79481615580E+02 0.  0.
          6    2    1    2  501    0 -0.10042113598E+03 -0.16802094320E+03  0.13930559301E+04  0.14172059672E+04  0.17190836890E+03 0.  0.
         24    2    5    5    0    0 -0.98257391890E+01 -0.10803322993E+03  0.50892499306E+03  0.52641101020E+03  0.79600120472E+02 0.  0.
          5    1    5    5  501    0 -0.90595396794E+02 -0.59987713274E+02  0.88413093704E+03  0.89079495705E+03  0.47000000000E+01 0. -1.
        -13    1    6    6    0    0 -0.19196653424E+02 -0.17673201583E+02  0.33909839978E+02  0.42787040142E+02  0.00000000000E+00 0.  1.
         14    1    6    6    0    0  0.93709142346E+01 -0.90360028344E+02  0.47501515308E+03  0.48362397006E+03  0.00000000000E+00 0. -1.
         -5    1    3    3    0  503  0.36781324102E+02  0.27992452100E+02  0.13160417956E+02  0.48287987927E+02  0.47000000000E+01 0.  1.
         11    1    4    4    0    0  0.22009534090E+02  0.12788888520E+03  0.34845025805E+03  0.37183002687E+03  0.00000000000E+00 0. -1.
        -12    1    4    4    0    0  0.41630277792E+02  0.12139605904E+02  0.11727112629E+03  0.12503186443E+03  0.00000000000E+00 0.  1.
</event>
<event>
12    1  0.8297444E-002  0.2053452E+03  0.7818608E-02  0.1147230E+00
         21   -1    0    0  501  502  0.00000000000E+00  0.00000000000E+00  0.14641774395E+03  0.14641774395E+03  0.00000000000E+00 0.  1.
         21   -1    0    0  502  503 -0.00000000000E+00 -0.00000000000E+00 -0.82819594071E+03  0.82819594071E+03  0.00000000000E+00 0.  1.
         -6    2    1    2    0  503  0.73018830156E+02 -0.36753457317E+02 -0.73644562709E+03  0.76211620863E+03  0.17828737371E+03 0.  0.
        -24    2    3    3    0    0  0.59886018515E+02 -0.98098125730E+01 -0.72141701929E+03  0.72825797793E+03  0.78959477390E+02 0.  0.
          6    2    1    2  501    0 -0.73018830156E+02  0.36753457317E+02  0.54667430331E+02  0.21249747603E+03  0.18837219327E+03 0.  0.
         24    2    5    5    0    0 -0.34438906021E+02  0.93529303660E+02  0.39088932490E+01  0.12699644468E+03  0.78606924789E+02 0.  0.
          5    1    5    5  501    0 -0.38579924135E+02 -0.56775846343E+02  0.50758537082E+02  0.85501031344E+02  0.47000000000E+01 0. -1.
        -13    1    6    6    0    0  0.22938480664E+02  0.48081952009E+02 -0.37262898364E+01  0.53403494643E+02  0.00000000000E+00 0.  1.
         14    1    6    6    0    0 -0.57377386685E+02  0.45447351651E+02  0.76351830854E+01  0.73592950040E+02  0.00000000000E+00 0. -1.
         -5    1    3    3    0  503  0.13132811641E+02 -0.26943644744E+02 -0.15028607799E+02  0.33858230699E+02  0.47000000000E+01 0.  1.
         11    1    4    4    0    0 -0.96284282560E+01  0.35031243679E+01 -0.14213247339E+02  0.17521270243E+02  0.00000000000E+00 0. -1.
        -12    1    4    4    0    0  0.69514446771E+02 -0.13312936941E+02 -0.70720377195E+03  0.71073670769E+03  0.00000000000E+00 0.  1.
</event>
<event>
12    1  0.8297444E-002  0.1793692E+03  0.7818608E-02  0.1168601E+00
         21   -1    0    0  503  502  0.00000000000E+00  0.00000000000E+00  0.18443093291E+03  0.18443093291E+03  0.00000000000E+00 0. -1.
         21   -1    0    0  501  503 -0.00000000000E+00 -0.00000000000E+00 -0.17828053684E+03  0.17828053684E+03  0.00000000000E+00 0. -1.
          6    2    1    2  501    0 -0.49939345669E+02  0.13152488229E+01 -0.25981142986E+02  0.18048706357E+03  0.17147854734E+03 0.  0.
         24    2    3    3    0    0 -0.66104040618E+02  0.56878553884E+02 -0.11685897931E-01  0.11688611284E+03  0.77829616211E+02 0.  0.
         -6    2    1    2    0  502  0.49939345669E+02 -0.13152488229E+01  0.32131539054E+02  0.18222440619E+03  0.17227196604E+03 0.  0.
        -24    2    5    5    0    0  0.40703375670E+02 -0.45823636419E+02  0.70444218134E+02  0.12259009487E+03  0.79431562023E+02 0.  0.
          5    1    3    3  501    0  0.16164694949E+02 -0.55563305061E+02 -0.25969457088E+02  0.63600950728E+02  0.47000000000E+01 0. -1.
        -11    1    4    4    0    0 -0.82057662854E+02  0.58604231448E+02 -0.31441248804E+00  0.10083657487E+03  0.00000000000E+00 0.  1.
         12    1    4    4    0    0  0.15953622236E+02 -0.17256775640E+01  0.30272659010E+00  0.16049537965E+02  0.00000000000E+00 0. -1.
         -5    1    5    5    0  502  0.92359699989E+01  0.44508387596E+02 -0.38312679080E+02  0.59634311319E+02  0.47000000000E+01 0.  1.
         11    1    6    6    0    0  0.21079361215E+02  0.18905438705E+01  0.67693435413E+02  0.70924712360E+02  0.00000000000E+00 0. -1.
        -12    1    6    6    0    0  0.19624014455E+02 -0.47714180289E+02  0.27507827215E+01  0.51665382507E+02  0.00000000000E+00 0.  1.
</event>
<event>
12    1  0.8297444E-002  0.2206857E+03  0.7818608E-02  0.1133510E+00
         21   -1    0    0  503  502  0.00000000000E+00  0.00000000000E+00  0.48078110243E+03  0.48078110243E+03  0.00000000000E+00 0. -1.
         21   -1    0    0  501  503 -0.00000000000E+00 -0.00000000000E+00 -0.11535965047E+03  0.11535965047E+03  0.00000000000E+00 0.  1.
          6    2    1    2  501    0 -0.11503469870E+03  0.75935801480E+02  0.77134811523E+02  0.23308243126E+03  0.17140132077E+03 0.  0.
         24    2    3    3    0    0 -0.11175707904E+03  0.10795510765E+03  0.91243976462E+02  0.19762629930E+03  0.81158739222E+02 0.  0.
         -6    2    1    2    0  502  0.11503469870E+03 -0.75935801480E+02  0.28828664044E+03  0.36305832164E+03  0.17234538000E+03 0.  0.
        -24    2    5    5    0    0  0.21221506947E+02 -0.55326177654E+02  0.22387939014E+03  0.24731699181E+03  0.86789255196E+02 0.  0.
          5    1    3    3  501    0 -0.32776196577E+01 -0.32019306168E+02 -0.14109164939E+02  0.35456131957E+02  0.47000000000E+01 0. -1.
        -11    1    4    4    0    0 -0.70072995684E+01  0.99492802872E+01 -0.14855336797E+02  0.19203423050E+02  0.00000000000E+00 0.  1.
         12    1    4    4    0    0 -0.10474977947E+03  0.98005827360E+02  0.10609931326E+03  0.17842287625E+03  0.00000000000E+00 0. -1.
         -5    1    5    5    0  502  0.93813191749E+02 -0.20609623825E+02  0.64407250305E+02  0.11574132984E+03  0.47000000000E+01 0.  1.
         11    1    6    6    0    0 -0.90041619921E+01  0.20990793107E+02  0.43227657117E+02  0.48890885329E+02  0.00000000000E+00 0. -1.
        -12    1    6    6    0    0  0.30225668939E+02 -0.76316970761E+02  0.18065173302E+03  0.19842610648E+03  0.00000000000E+00 0.  1.
</event>
<event>
12    1  0.8297444E-002  0.2158967E+03  0.7818608E-02  0.1137057E+00
         21   -1    0    0  503  502  0.00000000000E+00  0.00000000000E+00  0.12657239363E+04  0.12657239363E+04  0.00000000000E+00 0.  1.
         21   -1    0    0  501  503 -0.00000000000E+00 -0.00000000000E+00 -0.12655047845E+03  0.12655047845E+03  0.00000000000E+00 0. -1.
          6    2    1    2  501    0 -0.12110718140E+03  0.48365951772E+02 -0.16956316796E+02  0.21615901868E+03  0.17155462687E+03 0.  0.
         24    2    3    3    0    0 -0.14515130367E+03  0.80640128259E+01  0.12343658674E+01  0.16560847927E+03  0.79314030842E+02 0.  0.
         -6    2    1    2    0  502  0.12110718140E+03 -0.48365951772E+02  0.11561297747E+04  0.11761153961E+04  0.17206148434E+03 0.  0.
        -24    2    5    5    0    0  0.13354581978E+03 -0.34750066694E+02  0.64626933461E+03  0.66589988243E+03  0.81954545031E+02 0.  0.
          5    1    3    3  501    0  0.24044122271E+02  0.40301938946E+02 -0.18190682663E+02  0.50550539407E+02  0.47000000000E+01 0. -1.
        -11    1    4    4    0    0 -0.66109289163E+02  0.39282467140E+02  0.18020437267E+02  0.78982824067E+02  0.00000000000E+00 0.  1.
         12    1    4    4    0    0 -0.79042014503E+02 -0.31218454314E+02 -0.16786071400E+02  0.86625655204E+02  0.00000000000E+00 0. -1.
         -5    1    5    5    0  502 -0.12438638382E+02 -0.13615885078E+02  0.50986044006E+03  0.51021551367E+03  0.47000000000E+01 0.  1.
         13    1    6    6    0    0  0.41720348589E+02 -0.26185299132E+02  0.95418208178E+02  0.10738199024E+03  0.00000000000E+00 0. -1.
        -14    1    6    6    0    0  0.91825471188E+02 -0.85647675615E+01  0.55085112643E+03  0.55851789219E+03  0.00000000000E+00 0.  1.
</event>
<event>
12    1  0.8297444E-002  0.1950003E+03  0.7818608E-02  0.1154126E+00
         21   -1    0    0  503  502  0.00000000000E+00  0.00000000000E+00  0.17896569171E+03  0.17896569171E+03  0.00000000000E+00 0. -1.
         21   -1    0    0  501  503 -0.00000000000E+00 -0.00000000000E+00 -0.22970723959E+03  0.22970723959E+03  0.00000000000E+00 0. -1.
          6    2    1    2  501    0 -0.46719438467E+02 -0.76157611816E+02 -0.82165667547E+02  0.21160415097E+03  0.17332752815E+03 0.  0.
         24    2    3    3    0    0 -0.61289501032E+02 -0.23599234839E+02 -0.11143869810E+03  0.14952621582E+03  0.75007859335E+02 0.  0.
         -6    2    1    2    0  502  0.46719438467E+02  0.76157611816E+02  0.31424119662E+02  0.19706878033E+03  0.17281765279E+03 0.  0.
        -24    2    5    5    0    0 -0.12952450757E+02  0.34994851788E+02 -0.38926586300E+02  0.95943021959E+02  0.79356025035E+02 0.  0.
          5    1    3    3  501    0  0.14570062565E+02 -0.52558376977E+02  0.29273030555E+02  0.62077935142E+02  0.47000000000E+01 0. -1.
        -13    1    4    4    0    0  0.67503414693E+01  0.13209779368E+02 -0.45570691318E+02  0.47924453967E+02  0.00000000000E+00 0.  1.
         14    1    4    4    0    0 -0.68039842501E+02 -0.36809014207E+02 -0.65868006784E+02  0.10160176186E+03  0.00000000000E+00 0. -1.
         -5    1    5    5    0  502  0.59671889224E+02  0.41162760029E+02  0.70350705962E+02  0.10112575837E+03  0.47000000000E+01 0.  1.
         11    1    6    6    0    0  0.23695378076E+02 -0.13624093537E+00 -0.38460603863E+02  0.45174191229E+02  0.00000000000E+00 0. -1.
        -12    1    6    6    0    0 -0.36647828833E+02  0.35131092723E+02 -0.46598243754E+00  0.50768830730E+02  0.00000000000E+00 0.  1.
</event>
<event>
12    1  0.8297444E-002  0.2470762E+03  0.7818608E-02  0.1115483E+00
         21   -1    0    0  503  502  0.00000000000E+00  0.00000000000E+00  0.24788235098E+03  0.24788235098E+03  0.00000000000E+00 0.  1.
         21   -1    0    0  501  503 -0.00000000000E+00 -0.00000000000E+00 -0.28535077914E+03  0.28535077914E+03  0.00000000000E+00 0. -1.
          6    2    1    2  501    0  0.13918442505E+03  0.10851716084E+03 -0.11977275677E+03  0.27280915582E+03  0.17009128096E+03 0.  0.
         24    2    3    3    0    0  0.11640862118E+03  0.11163286366E+03 -0.15093081618E+03  0.23380454696E+03  0.76626311238E+02 0.  0.
         -6    2    1    2    0  502 -0.13918442505E+03 -0.10851716084E+03  0.82304328618E+02  0.26042397430E+03  0.17291143833E+03 0.  0.
        -24    2    5    5    0    0 -0.61971190845E+02  0.92190546155E+01  0.60116773764E+01  0.10021673788E+03  0.77986119432E+02 0.  0.
          5    1    3    3  501    0  0.22775803873E+02 -0.31157028212E+01  0.31158059402E+02  0.39004608854E+02  0.47000000000E+01 0. -1.
        -11    1    4    4    0    0  0.33027276944E+02 -0.44084036120E+01 -0.44694148642E+02  0.55747663337E+02  0.00000000000E+00 0.  1.
         12    1    4    4    0    0  0.83381344236E+02  0.11604126728E+03 -0.10623666753E+03  0.17805688363E+03  0.00000000000E+00 0. -1.
         -5    1    5    5    0  502 -0.77213234208E+02 -0.11773621546E+03  0.76292651241E+02  0.16020723642E+03  0.47000000000E+01 0.  1.
         13    1    6    6    0    0 -0.16208418358E+02  0.43472309762E+01  0.39754061579E+02  0.43150859259E+02  0.00000000000E+00 0. -1.
        -14    1    6    6    0    0 -0.45762772487E+02  0.48718236393E+01 -0.33742384202E+02  0.57065878623E+02  0.00000000000E+00 0.  1.
</event>
<event>
12    1  0.8297444E-002  0.1954335E+03  0.7818608E-02  0.1153798E+00
         21   -1    0    0  503  502  0.00000000000E+00  0.00000000000E+00  0.56747342011E+02  0.56747342011E+02  0.00000000000E+00 0. -1.
         21   -1    0    0  501  503 -0.00000000000E+00 -0.00000000000E+00 -0.68640347888E+03  0.68640347888E+03  0.00000000000E+00 0.  1.
          6    2    1    2  501    0  0.88343347887E+02  0.27283333037E+02 -0.37046814372E+03  0.41853925798E+03  0.17140460199E+03 0.  0.
         24    2    3    3    0    0  0.55747751181E+02  0.14182491163E+01 -0.78025051397E+02  0.12311324738E+03  0.77195465175E+02 0.  0.
         -6    2    1    2    0  502 -0.88343347887E+02 -0.27283333037E+02 -0.25918799315E+03  0.32461156291E+03  0.17217817401E+03 0.  0.
        -24    2    5    5    0    0 -0.23348930245E+02 -0.24299802848E+02 -0.24123297886E+03  0.25695324254E+03  0.81828881222E+02 0.  0.
          5    1    3    3  501    0  0.32595596706E+02  0.25865083921E+02 -0.29244309232E+03  0.29542601060E+03  0.47000000000E+01 0. -1.
        -13    1    4    4    0    0  0.48861252451E+02  0.17915919872E+02 -0.88298698924E+02  0.10249420670E+03  0.00000000000E+00 0.  1.
         14    1    4    4    0    0  0.68864987304E+01 -0.16497670756E+02  0.10273647527E+02  0.20619040682E+02  0.00000000000E+00 0. -1.
         -5    1    5    5    0  502 -0.64994417642E+02 -0.29835301894E+01 -0.17955014295E+02  0.67658320371E+02  0.47000000000E+01 0.  1.
         13    1    6    6    0    0 -0.54375448838E+01 -0.53506398525E+02 -0.15974979920E+03  0.16856007808E+03  0.00000000000E+00 0. -1.
        -14    1    6    6    0    0 -0.17911385361E+02  0.29206595678E+02 -0.81483179658E+02  0.88393164463E+02  0.00000000000E+00 0.  1.
</event>
<event>
12    1  0.8297444E-002  0.1974374E+03  0.7818608E-02  0.1154356E+00
         21   -1    0    0  501  502  0.00000000000E+00  0.00000000000E+00  0.23040424439E+03  0.23040424439E+03  0.00000000000E+00 0. -1.
         21   -1    0    0  502  503 -0.00000000000E+00 -0.00000000000E+00 -0.16628584441E+03  0.16628584441E+03  0.00000000000E+00 0. -1.
         -6    2    1    2    0  503 -0.53092758302E+02 -0.48571748528E+02 -0.59730434678E+01  0.19752771029E+03  0.18385718193E+03 0.  0.
        -24    2    3    3    0    0 -0.95015574067E+00 -0.99065412461E+02 -0.10325062958E+01  0.12462393805E+03  0.75598949229E+02 0.  0.
          6    2    1    2  501    0  0.53092758302E+02  0.48571748528E+02  0.70091443452E+02  0.19916237851E+03  0.17197321544E+03 0.  0.
         24    2    5    5    0    0  0.22358915646E+02 -0.28081482893E+02 -0.14164753546E+01  0.89819983148E+02  0.82323339217E+02 0.  0.
          5    1    5    5  501    0  0.30733842656E+02  0.76653231421E+02  0.71507918807E+02  0.10934239536E+03  0.47000000000E+01 0. -1.
        -11    1    6    6    0    0  0.41699915924E+02 -0.46829139739E+02  0.15311494235E+01  0.62723167453E+02  0.00000000000E+00 0.  1.
         12    1    6    6    0    0 -0.19341000278E+02  0.18747656846E+02 -0.29476247780E+01  0.27096815695E+02  0.00000000000E+00 0. -1.
         -5    1    3    3    0  503 -0.52142602561E+02  0.50493663933E+02 -0.49405371720E+01  0.72903772240E+02  0.47000000000E+01 0.  1.
         13    1    4    4    0    0 -0.35624695835E+02 -0.70424091224E+02  0.57966742974E+01  0.79134524773E+02  0.00000000000E+00 0. -1.
        -14    1    4    4    0    0  0.34674540095E+02 -0.28641321237E+02 -0.68291805932E+01  0.45489413280E+02  0.00000000000E+00 0.  1.
</event>
<event>
12    1  0.8297444E-002  0.2491381E+03  0.7818608E-02  0.1114804E+00
         21   -1    0    0  503  502  0.00000000000E+00  0.00000000000E+00  0.36710915782E+03  0.36710915782E+03  0.00000000000E+00 0. -1.
         21   -1    0    0  501  503 -0.00000000000E+00 -0.00000000000E+00 -0.43650977354E+03  0.43650977354E+03  0.00000000000E+00 0. -1.
          6    2    1    2  501    0 -0.16276961285E+03  0.75421958484E+02 -0.35138355497E+03  0.42734221149E+03  0.16422102281E+03 0.  0.
         24    2    3    3    0    0 -0.17359570252E+03  0.43016523597E+02 -0.23492161762E+03  0.30588115074E+03  0.79932613608E+02 0.  0.
         -6    2    1    2    0  502  0.16276961285E+03 -0.75421958484E+02  0.28198293925E+03  0.37627671987E+03  0.17287964945E+03 0.  0.
        -24    2    5    5    0    0  0.10292308008E+03  0.22603003751E+02  0.17416177443E+03  0.21867597656E+03  0.79892445588E+02 0.  0.
          5    1    3    3  501    0  0.10826089667E+02  0.32405434887E+02 -0.11646193735E+03  0.12146106075E+03  0.47000000000E+01 0. -1.
        -11    1    4    4    0    0 -0.63997505899E+02  0.54508371413E+02 -0.82395734580E+02  0.11771108865E+03  0.00000000000E+00 0.  1.
         12    1    4    4    0    0 -0.10959819662E+03 -0.11491847816E+02 -0.15252588304E+03  0.18817006208E+03  0.00000000000E+00 0. -1.
         -5    1    5    5    0  502  0.59846532767E+02 -0.98024962235E+02  0.10782116483E+03  0.15760074330E+03  0.47000000000E+01 0.  1.
         13    1    6    6    0    0  0.59325355657E+02 -0.13948520622E+02  0.39860267136E+02  0.72821013091E+02  0.00000000000E+00 0. -1.
        -14    1    6    6    0    0  0.43597724426E+02  0.36551524373E+02  0.13430150729E+03  0.14585496347E+03  0.00000000000E+00 0.  1.
</event>
<event>
12    1  0.8297444E-002  0.1773908E+03  0.7818608E-02  0.1170589E+00
         21   -1    0    0  501  502  0.00000000000E+00  0.00000000000E+00  0.12009522510E+03  0.12009522510E+03  0.00000000000E+00 0.  1.
         21   -1    0    0  502  503 -0.00000000000E+00 -0.00000000000E+00 -0.32491966515E+03  0.32491966515E+03  0.00000000000E+00 0.  1.
         -6    2    1    2    0  503 -0.13939857043E+02 -0.36688934830E+02 -0.20162562373E+03  0.26855240382E+03  0.17299451985E+03 0.  0.
        -24    2    3    3    0    0  0.29277497645E+02  0.35953123911E+02 -0.92301613382E+02  0.13028296510E+03  0.79399396572E+02 0.  0.
          6    2    1    2  501    0  0.13939857043E+02  0.36688934830E+02 -0.31988163189E+01  0.17646248643E+03  0.17201272958E+03 0.  0.
         24    2    5    5    0    0  0.50958820499E+02  0.67148689824E+02  0.27720688307E+02  0.11922346044E+03  0.79624424822E+02 0.  0.
          5    1    5    5  501    0 -0.37018963456E+02 -0.30459754994E+02 -0.30919504626E+02  0.57239025987E+02  0.47000000000E+01 0. -1.
        -13    1    6    6    0    0 -0.13500274002E+02  0.19382220639E+02 -0.15344784426E+02  0.28167184526E+02  0.00000000000E+00 0.  1.
         14    1    6    6    0    0  0.64459094501E+02  0.47766469185E+02  0.43065472733E+02  0.91056275918E+02  0.00000000000E+00 0. -1.
         -5    1    3    3    0  503 -0.43217354688E+02 -0.72642058741E+02 -0.10932401034E+03  0.13826943871E+03  0.47000000000E+01 0.  1.
         11    1    4    4    0    0  0.33417525435E+02  0.10330370712E+02 -0.60422188566E+00  0.34983033735E+02  0.00000000000E+00 0. -1.
        -12    1    4    4    0    0 -0.41400277899E+01  0.25622753199E+02 -0.91697391497E+02  0.95299931369E+02  0.00000000000E+00 0.  1.
</event>
<event>
12    1  0.8297444E-002  0.1840617E+03  0.7818608E-02  0.1164094E+00
         21   -1    0    0  503  502  0.00000000000E+00  0.00000000000E+00  0.56176772464E+03  0.56176772464E+03  0.00000000000E+00 0. -1.
         21   -1    0    0  501  503 -0.00000000000E+00 -0.00000000000E+00 -0.90843464926E+02  0.90843464926E+02  0.00000000000E+00 0. -1.
          6    2    1    2  501    0  0.21167573563E+02 -0.60424090165E+02  0.45865987392E+02  0.18969025246E+03  0.17256757006E+03 0.  0.
         24    2    3    3    0    0 -0.79455656374E+01 -0.45265484174E+02 -0.34001792847E+02  0.10321302696E+03  0.85934340904E+02 0.  0.
         -6    2    1    2    0  502 -0.21167573563E+02  0.60424090165E+02  0.42505827232E+03  0.46292093710E+03  0.17182002881E+03 0.  0.
        -24    2    5    5    0    0 -0.41048010202E+02 -0.14211904256E+02  0.17020752295E+03  0.19658138338E+03  0.88242405106E+02 0.  0.
          5    1    3    3  501    0  0.29113139201E+02 -0.15158605991E+02  0.79867780239E+02  0.86477225499E+02  0.47000000000E+01 0. -1.
        -13    1    4    4    0    0 -0.35550635611E+02 -0.29769466394E+01  0.91021533234E+01  0.36817918175E+02  0.00000000000E+00 0.  1.
         14    1    4    4    0    0  0.27605069974E+02 -0.42288537535E+02 -0.43103946170E+02  0.66395108785E+02  0.00000000000E+00 0. -1.
         -5    1    5    5    0  502  0.19880436638E+02  0.74635994421E+02  0.25485074937E+03  0.26633955373E+03  0.47000000000E+01 0.  1.
         13    1    6    6    0    0 -0.38173324759E+02  0.28624881890E+02  0.50817714491E+02  0.69706719135E+02  0.00000000000E+00 0. -1.
        -14    1    6    6    0    0 -0.28746854429E+01 -0.42836786146E+02  0.11938980845E+03  0.12687466424E+03  0.00000000000E+00 0.  1.
</event>
<event>
12    1  0.8297444E-002  0.1933732E+03  0.7818608E-02  0.1155985E+00
         21   -1    0    0  501  502  0.00000000000E+00  0.00000000000E+00  0.23223394663E+03  0.23223394663E+03  0.00000000000E+00 0. -1.
         21   -1    0    0  502  503 -0.00000000000E+00 -0.00000000000E+00 -0.17692811154E+03  0.17692811154E+03  0.00000000000E+00 0. -1.
         -6    2    1    2    0  503  0.82492436174E+02 -0.34561917646E+02 -0.37267524761E+02  0.19693163342E+03  0.17144582719E+03 0.  0.
        -24    2    3    3    0    0  0.10606096553E+03 -0.32420555268E+01 -0.65732249844E+02  0.14826193120E+03  0.80008951003E+02 0.  0.
          6    2    1    2  501    0 -0.82492436174E+02  0.34561917646E+02  0.92573359855E+02  0.21223042476E+03  0.16873766047E+03 0.  0.
         24    2    5    5    0    0 -0.85934347354E+02  0.80772163966E+02  0.60873176432E+02  0.15589016165E+03  0.81776184582E+02 0.  0.
          5    1    5    5  501    0  0.34419111799E+01 -0.46210246321E+02  0.31700183423E+02  0.56340263104E+02  0.47000000000E+01 0. -1.
        -11    1    6    6    0    0 -0.21669446465E+02  0.75786864534E+02  0.29071961393E+02  0.84014240967E+02  0.00000000000E+00 0.  1.
         12    1    6    6    0    0 -0.64264900889E+02  0.49852994320E+01  0.31801215039E+02  0.71875920687E+02  0.00000000000E+00 0. -1.
         -5    1    3    3    0  503 -0.23568529360E+02 -0.31319862119E+02  0.28464725083E+02  0.48669702212E+02  0.47000000000E+01 0.  1.
         11    1    4    4    0    0  0.54601148953E+02  0.33706978900E+02 -0.53930840918E+02  0.83821127979E+02  0.00000000000E+00 0. -1.
        -12    1    4    4    0    0  0.51459816581E+02 -0.36949034426E+02 -0.11801408925E+02  0.64440803225E+02  0.00000000000E+00 0.  1.
</event>
<event>
12    1  0.8297444E-002  0.2311122E+03  0.7818608E-02  0.1126454E+00
         21   -1    0    0  501  502  0.00000000000E+00  0.00000000000E+00  0.18292423592E+03  0.18292423592E+03  0.00000000000E+00 0. -1.
         21   -1    0    0  502  503 -0.00000000000E+00 -0.00000000000E+00 -0.44647725149E+03  0.44647725149E+03  0.00000000000E+00 0. -1.
         -6    2    1    2    0  503 -0.15280971964E+03  0.19569459785E+02 -0.31879067241E+03  0.39177984764E+03  0.16772054743E+03 0.  0.
        -24    2    3    3    0    0 -0.11035865302E+03  0.75543716184E+01 -0.31950589084E+03  0.34740579060E+03  0.79816465942E+02 0.  0.
          6    2    1    2  501    0  0.15280971964E+03 -0.19569459785E+02  0.55237656843E+02  0.23762163978E+03  0.17227614688E+03 0.  0.
         24    2    5    5    0    0  0.79863921924E+02 -0.14840443549E+01 -0.35448264040E+02  0.11974798750E+03  0.81869119170E+02 0.  0.
          5    1    5    5  501    0  0.72945797712E+02 -0.18085415430E+02  0.90685920883E+02  0.11787365228E+03  0.47000000000E+01 0. -1.
        -11    1    6    6    0    0 -0.39735112640E+01 -0.23245681560E+02  0.50731099333E+01  0.24122332959E+02  0.00000000000E+00 0.  1.
         12    1    6    6    0    0  0.83837433188E+02  0.21761637205E+02 -0.40521373973E+02  0.95625654539E+02  0.00000000000E+00 0. -1.
         -5    1    3    3    0  503 -0.42451066619E+02  0.12015088166E+02  0.71521842806E+00  0.44374057039E+02  0.47000000000E+01 0.  1.
         13    1    4    4    0    0 -0.26090758195E+02  0.38385685122E+02 -0.98906881540E+02  0.10925547905E+03  0.00000000000E+00 0. -1.
        -14    1    4    4    0    0 -0.84267894821E+02 -0.30831313503E+02 -0.22059900930E+03  0.23815031155E+03  0.00000000000E+00 0.  1.
</event>
<event>
12    1  0.8297444E-002  0.2929556E+03  0.7818608E-02  0.1088908E+00
         21   -1    0    0  503  502  0.00000000000E+00  0.00000000000E+00  0.35502117995E+03  0.35502117995E+03  0.00000000000E+00 0.  1.
         21   -1    0    0  501  503 -0.00000000000E+00 -0.00000000000E+00 -0.28896734760E+03  0.28896734760E+03  0.00000000000E+00 0.  1.
          6    2    1    2  501    0 -0.11120331485E+02 -0.23650802941E+03 -0.97985561410E+02  0.30823279103E+03  0.17130841624E+03 0.  0.
         24    2    3    3    0    0  0.55151035032E+02 -0.16260578626E+03 -0.86403489204E+02  0.20818445292E+03  0.79955769642E+02 0.  0.
         -6    2    1    2    0  502  0.11120331485E+02  0.23650802941E+03  0.16403939376E+03  0.33575573651E+03  0.17252038183E+03 0.  0.
        -24    2    5    5    0    0  0.26406591187E+02  0.23376107259E+03  0.96455419117E+02  0.26625106662E+03  0.79021740592E+02 0.  0.
          5    1    3    3  501    0 -0.66271366517E+02 -0.73902243149E+02 -0.11582072207E+02  0.10004833811E+03  0.47000000000E+01 0. -1.
        -11    1    4    4    0    0  0.67422261912E+02 -0.83543047252E+02 -0.34285540867E+02  0.11269738443E+03  0.00000000000E+00 0.  1.
         12    1    4    4    0    0 -0.12271226880E+02 -0.79062739012E+02 -0.52117948337E+02  0.95487068486E+02  0.00000000000E+00 0. -1.
         -5    1    5    5    0  502 -0.15286259703E+02  0.27469568253E+01  0.67583974646E+02  0.69504669890E+02  0.47000000000E+01 0.  1.
         11    1    6    6    0    0  0.99881165665E+01  0.14709419697E+02  0.33195894479E+02  0.37657627522E+02  0.00000000000E+00 0. -1.
        -12    1    6    6    0    0  0.16418474621E+02  0.21905165289E+03  0.63259524638E+02  0.22859343910E+03  0.00000000000E+00 0.  1.
</event>
<event>
12    1  0.8297444E-002  0.1962008E+03  0.7818608E-02  0.1153247E+00
         21   -1    0    0  501  502  0.00000000000E+00  0.00000000000E+00  0.35993316499E+02  0.35993316499E+02  0.00000000000E+00 0. -1.
         21   -1    0    0  502  503 -0.00000000000E+00 -0.00000000000E+00 -0.14684613330E+04  0.14684613330E+04  0.00000000000E+00 0. -1.
         -6    2    1    2    0  503 -0.62883424463E+02  0.68537512871E+02 -0.11099389875E+04  0.11269368161E+04  0.17137769975E+03 0.  0.
        -24    2    3    3    0    0  0.79470400527E+01  0.68195874994E+02 -0.87899453997E+03  0.88532866388E+03  0.80384133824E+02 0.  0.
          6    2    1    2  501    0  0.62883424463E+02 -0.68537512871E+02 -0.32252902902E+03  0.37751783332E+03  0.17275133625E+03 0.  0.
         24    2    5    5    0    0  0.46386211432E+02 -0.67101862909E+02 -0.33646945455E+03  0.35536733462E+03  0.80124328728E+02 0.  0.
          5    1    5    5  501    0  0.16497213031E+02 -0.14356499617E+01  0.13940425535E+02  0.22150498700E+02  0.47000000000E+01 0. -1.
        -11    1    6    6    0    0  0.22801977928E+02  0.71412416065E+01 -0.16883279749E+03  0.17051522231E+03  0.00000000000E+00 0.  1.
         12    1    6    6    0    0  0.23584233504E+02 -0.74243104515E+02 -0.16763665706E+03  0.18485211232E+03  0.00000000000E+00 0. -1.
         -5    1    3    3    0  503 -0.70830464516E+02  0.34163787703E+00 -0.23094444749E+03  0.24160815227E+03  0.47000000000E+01 0.  1.
         11    1    4    4    0    0 -0.26855238408E+02  0.44291877041E+02 -0.27335315077E+03  0.27821739564E+03  0.00000000000E+00 0. -1.
        -12    1    4    4    0    0  0.34802278461E+02  0.23903997953E+02 -0.60564138921E+03  0.60711126824E+03  0.00000000000E+00 0.  1.
</event>
<event>
12    1  0.8297444E-002  0.1982859E+03  0.7818608E-02  0.1151265E+00
         21   -1    0    0  501  502  0.00000000000E+00  0.00000000000E+00  0.23050001997E+03  0.23050001997E+03  0.00000000000E+00 0.  1.
         21   -1    0    0  502  503 -0.00000000000E+00 -0.00000000000E+00 -0.75226693332E+03  0.75226693332E+03  0.00000000000E+00 0.  1.
         -6    2    1    2    0  503  0.87827526839E+02 -0.45128860961E+02 -0.69313867717E+03  0.72094279403E+03  0.17195056821E+03 0.  0.
        -24    2    3    3    0    0 -0.14467096474E+02 -0.25486016288E+02 -0.39931447364E+03  0.40916597660E+03  0.84296581430E+02 0.  0.
          6    2    1    2  501    0 -0.87827526839E+02  0.45128860961E+02  0.17137176382E+03  0.26182415926E+03  0.17156141866E+03 0.  0.
         24    2    5    5    0    0 -0.15055831058E+02 -0.33541996758E+02  0.56067120155E+02  0.10433741565E+03  0.79943922511E+02 0.  0.
          5    1    5    5  501    0 -0.72771695780E+02  0.78670857719E+02  0.11530464367E+03  0.15748674361E+03  0.47000000000E+01 0. -1.
        -13    1    6    6    0    0 -0.16994256324E+02 -0.46125360324E+02  0.69953623168E+02  0.85497736855E+02  0.00000000000E+00 0.  1.
         14    1    6    6    0    0  0.19384252656E+01  0.12583363566E+02 -0.13886503013E+02  0.18839678794E+02  0.00000000000E+00 0. -1.
         -5    1    3    3    0  503  0.10229462331E+03 -0.19642844673E+02 -0.29382420353E+03  0.31177681743E+03  0.47000000000E+01 0.  1.
         13    1    4    4    0    0 -0.99277089971E+01  0.23627762146E+02 -0.26220796229E+03  0.26345748431E+03  0.00000000000E+00 0. -1.
        -14    1    4    4    0    0 -0.45393874771E+01 -0.49113778434E+02 -0.13710651135E+03  0.14570849229E+03  0.00000000000E+00 0.  1.
</event>
<event>
12    1  0.8297444E-002  0.2323380E+03  0.7818608E-02  0.1125371E+00
         21   -1    0    0  503  502  0.00000000000E+00  0.00000000000E+00  0.49280968586E+03  0.49280968586E+03  0.00000000000E+00 0. -1.
         21   -1    0    0  501  503 -0.00000000000E+00 -0.00000000000E+00 -0.11821507404E+03  0.11821507404E+03  0.00000000000E+00 0. -1.
          6    2    1    2  501    0 -0.15106878169E+03  0.41327478001E+02  0.99166378237E+02  0.25068926190E+03  0.16876432745E+03 0.  0.
         24    2    3    3    0    0 -0.27564980412E+02 -0.87299884212E+01 -0.41259445647E+01  0.82016997363E+02  0.76640221783E+02 0.  0.
         -6    2    1    2    0  502  0.15106878169E+03 -0.41327478001E+02  0.27542823358E+03  0.36033549799E+03  0.17161358343E+03 0.  0.
        -24    2    5    5    0    0  0.10962835288E+03 -0.93886766793E+02  0.20731420165E+03  0.26472483267E+03  0.79164121222E+02 0.  0.
          5    1    3    3  501    0 -0.12350380128E+03  0.50057466423E+02  0.10329232280E+03  0.16867226454E+03  0.47000000000E+01 0. -1.
        -13    1    4    4    0    0  0.25405735595E+02 -0.56186765336E+01 -0.11495128864E+02  0.28445718741E+02  0.00000000000E+00 0.  1.
         14    1    4    4    0    0 -0.52970716007E+02 -0.31113118876E+01  0.73691842994E+01  0.53571278622E+02  0.00000000000E+00 0. -1.
         -5    1    5    5    0  502  0.41440428812E+02  0.52559288792E+02  0.68114031933E+02  0.95610665329E+02  0.47000000000E+01 0.  1.
         13    1    6    6    0    0  0.35658535444E+02 -0.41480818272E+02  0.23031309761E+02  0.59351753671E+02  0.00000000000E+00 0. -1.
        -14    1    6    6    0    0  0.73969817437E+02 -0.52405948522E+02  0.18428289189E+03  0.20537307899E+03  0.00000000000E+00 0.  1.
</event>
<event>
12    1  0.8297444E-002  0.1768711E+03  0.7818608E-02  0.1170923E+00
         21   -1    0    0  501  502  0.00000000000E+00  0.00000000000E+00  0.53673060802E+02  0.53673060802E+02  0.00000000000E+00 0.  1.
         21   -1    0    0  502  503 -0.00000000000E+00 -0.00000000000E+00 -0.59918620883E+03  0.59918620883E+03  0.00000000000E+00 0.  1.
         -6    2    1    2    0  503 -0.35465102457E+02 -0.19916018697E+02 -0.32806159019E+03  0.37270333987E+03  0.17213062277E+03 0.  0.
        -24    2    3    3    0    0 -0.57673709248E+02 -0.69408706296E+02 -0.20362593560E+03  0.23687598446E+03  0.80640468249E+02 0.  0.
          6    2    1    2  501    0  0.35465102457E+02  0.19916018697E+02 -0.21745155784E+03  0.28015592977E+03  0.17189457142E+03 0.  0.
         24    2    5    5    0    0 -0.10576689482E+02 -0.44676872480E+02 -0.14836223247E+03  0.17485866924E+03  0.80351184736E+02 0.  0.
          5    1    5    5  501    0  0.46041791939E+02  0.64592891177E+02 -0.69089325364E+02  0.10529726053E+03  0.47000000000E+01 0. -1.
        -13    1    6    6    0    0 -0.40468183718E+02 -0.28456298576E+02 -0.48159300441E+02  0.69041676117E+02  0.00000000000E+00 0.  1.
         14    1    6    6    0    0  0.29891494236E+02 -0.16220573905E+02 -0.10020293203E+03  0.10581699312E+03  0.00000000000E+00 0. -1.
         -5    1    3    3    0  503  0.22208606791E+02  0.49492687599E+02 -0.12443565459E+03  0.13582735540E+03  0.47000000000E+01 0.  1.
         13    1    4    4    0    0  0.35797061365E+01 -0.43106935340E+02 -0.13255712211E+03  0.13943605270E+03  0.00000000000E+00 0. -1.
        -14    1    4    4    0    0 -0.61253415384E+02 -0.26301770956E+02 -0.71068813491E+02  0.97439931766E+02  0.00000000000E+00 0.  1.
</event>
<event>
12    1  0.8297444E-002  0.1924058E+03  0.7818608E-02  0.1156531E+00
         21   -1    0    0  501  502  0.00000000000E+00  0.00000000000E+00  0.92513721357E+02  0.92513721357E+02  0.00000000000E+00 0.  1.
         21   -1    0    0  502  503 -0.00000000000E+00 -0.00000000000E+00 -0.43168919923E+03  0.43168919923E+03  0.00000000000E+00 0. -1.
         -6    2    1    2    0  503  0.59775509840E+02 -0.62534816940E+02 -0.24312400174E+03  0.31004718825E+03  0.17186117599E+03 0.  0.
        -24    2    3    3    0    0  0.66535956018E+02 -0.10639216984E+02 -0.63502127770E+02  0.12289761028E+03  0.80815072846E+02 0.  0.
          6    2    1    2  501    0 -0.59775509840E+02  0.62534816940E+02 -0.96051476139E+02  0.21415573234E+03  0.17074272084E+03 0.  0.
         24    2    5    5    0    0 -0.68753012493E+02  0.95670480001E+02 -0.41596687160E+02  0.14961131536E+03  0.82300934572E+02 0.  0.
          5    1    5    5  501    0  0.89775026535E+01 -0.33135663060E+02 -0.54454788979E+02  0.64544416978E+02  0.47000000000E+01 0. -1.
        -13    1    6    6    0    0 -0.57272789530E+02  0.18722375386E+02  0.22675651457E+01  0.60297940365E+02  0.00000000000E+00 0.  1.
         14    1    6    6    0    0 -0.11480222963E+02  0.76948104615E+02 -0.43864252306E+02  0.89313374998E+02  0.00000000000E+00 0. -1.
         -5    1    3    3    0  503 -0.67604461786E+01 -0.51895599957E+02 -0.17962187397E+03  0.18714957797E+03  0.47000000000E+01 0.  1.
         11    1    4    4    0    0  0.18433728950E+02  0.21058629255E+02 -0.58773466157E+02  0.65096763001E+02  0.00000000000E+00 0. -1.
        -12    1    4    4    0    0  0.48102227068E+02 -0.31697846239E+02 -0.47286616123E+01  0.57800847275E+02  0.00000000000E+00 0.  1.
</event>
<event>
12    1  0.8297444E-002  0.2596169E+03  0.7818608E-02  0.1107564E+00
         21   -1    0    0  503  502  0.00000000000E+00  0.00000000000E+00  0.97184483605E+03  0.97184483605E+03  0.00000000000E+00 0.  1.
         21   -1    0    0  501  503 -0.00000000000E+00 -0.00000000000E+00 -0.77393414642E+02  0.77393414642E+02  0.00000000000E+00 0. -1.
          6    2    1    2  501    0  0.64241668191E+02  0.18198278633E+03  0.27560169587E+03  0.37862541901E+03  0.17365536760E+03 0.  0.
         24    2    3    3    0    0 -0.23329287645E+02  0.68614023504E+02  0.16912485164E+03  0.20007414612E+03  0.78576768968E+02 0.  0.
         -6    2    1    2    0  502 -0.64241668191E+02 -0.18198278633E+03  0.61884972553E+03  0.67061283168E+03  0.17176105721E+03 0.  0.
        -24    2    5    5    0    0 -0.81319514438E+02 -0.75415556860E+02  0.23368205485E+03  0.27058226814E+03  0.79417198566E+02 0.  0.
          5    1    3    3  501    0  0.87570955835E+02  0.11336876282E+03  0.10647684423E+03  0.17855127288E+03  0.47000000000E+01 0. -1.
        -11    1    4    4    0    0 -0.12948459153E+02  0.71644397576E+02  0.72155471997E+02  0.10250363134E+03  0.00000000000E+00 0.  1.
         12    1    4    4    0    0 -0.10380828492E+02 -0.30303740714E+01  0.96969379641E+02  0.97570514784E+02  0.00000000000E+00 0. -1.
         -5    1    5    5    0  502  0.17077846248E+02 -0.10656722947E+03  0.38516767068E+03  0.40003056354E+03  0.47000000000E+01 0.  1.
         13    1    6    6    0    0 -0.49709554328E+02 -0.97449079537E+01  0.15620165661E+03  0.16421011099E+03  0.00000000000E+00 0. -1.
        -14    1    6    6    0    0 -0.31609960110E+02 -0.65670648907E+02  0.77480398238E+02  0.10637215715E+03  0.00000000000E+00 0.  1.
</event>
<event>
12    1  0.8297444E-002  0.1916783E+03  0.7818608E-02  0.1157162E+00
         21   -1    0    0  501  502  0.00000000000E+00  0.00000000000E+00  0.17678804190E+04  0.17678804190E+04  0.00000000000E+00 0. -1.
         21   -1    0    0  502  503 -0.00000000000E+00 -0.00000000000E+00 -0.28867473536E+02  0.28867473536E+02  0.00000000000E+00 0. -1.
         -6    2    1    2    0  503  0.34811277772E+02  0.76047374746E+02  0.39264376158E+03  0.43693213373E+03  0.17246894710E+03 0.  0.
        -24    2    3    3    0    0  0.30060728645E+02  0.85573946814E+02  0.13858569710E+03  0.18260770820E+03  0.76896240966E+02 0.  0.
          6    2    1    2  501    0 -0.34811277772E+02 -0.76047374746E+02  0.13463691839E+04  0.13598157589E+04  0.17144646488E+03 0.  0.
         24    2    5    5    0    0  0.18036094828E+02 -0.92609175597E+02  0.11166018578E+04  0.11234214861E+04  0.79839629540E+02 0.  0.
          5    1    5    5  501    0 -0.52847372600E+02  0.16561800850E+02  0.22976732617E+03  0.23639427280E+03  0.47000000000E+01 0. -1.
        -13    1    6    6    0    0 -0.93821237556E+01  0.65468281723E+01  0.32606901824E+02  0.34555683351E+02  0.00000000000E+00 0.  1.
         14    1    6    6    0    0  0.27418218583E+02 -0.99156003769E+02  0.10839949559E+04  0.10888658027E+04  0.00000000000E+00 0. -1.
         -5    1    3    3    0  503  0.47505491269E+01 -0.95265720672E+01  0.25405806448E+03  0.25432442553E+03  0.47000000000E+01 0.  1.
         13    1    4    4    0    0  0.31049974213E+02  0.54164219944E+02  0.29435959724E+02  0.69024193915E+02  0.00000000000E+00 0. -1.
        -14    1    4    4    0    0 -0.98924556808E+00  0.31409726870E+02  0.10914973738E+03  0.11358351429E+03  0.00000000000E+00 0.  1.
</event>
<event>
12    1  0.8297444E-002  0.1886321E+03  0.7818608E-02  0.1160980E+00
         21   -1    0    0  503  502  0.00000000000E+00  0.00000000000E+00  0.86037133690E+02  0.86037133690E+02  0.00000000000E+00 0.  1.
         21   -1    0    0  501  503 -0.00000000000E+00 -0.00000000000E+00 -0.41345341519E+03  0.41345341519E+03  0.00000000000E+00 0.  1.
          6    2    1    2  501    0  0.41930771800E+02 -0.69218203169E+02 -0.20374885875E+03  0.27393412635E+03  0.16424664035E+03 0.  0.
         24    2    3    3    0    0  0.57033845758E+01  0.93038420230E+01 -0.73589895800E+02  0.11759609258E+03  0.91072927675E+02 0.  0.
         -6    2    1    2    0  502 -0.41930771800E+02  0.69218203169E+02 -0.12366742275E+03  0.22555642253E+03  0.17038990293E+03 0.  0.
        -24    2    5    5    0    0  0.17105385889E+02  0.55989634957E+02 -0.13221277406E+03  0.16427530015E+03  0.77966166802E+02 0.  0.
          5    1    3    3  501    0  0.36227387224E+02 -0.78522045192E+02 -0.13015896295E+03  0.15633803377E+03  0.47000000000E+01 0. -1.
        -11    1    4    4    0    0  0.88370181808E+01 -0.40449556383E+02 -0.27511297775E+02  0.49710471806E+02  0.00000000000E+00 0.  1.
         12    1    4    4    0    0 -0.31336336050E+01  0.49753398406E+02 -0.46078598025E+02  0.67885620778E+02  0.00000000000E+00 0. -1.
         -5    1    5    5    0  502 -0.59036157689E+02  0.13228568211E+02  0.85453513039E+01  0.61281122382E+02  0.47000000000E+01 0.  1.
         11    1    6    6    0    0 -0.26395973041E+01  0.21191905108E+02 -0.12079560542E+03  0.12266883306E+03  0.00000000000E+00 0. -1.
        -12    1    6    6    0    0  0.19744983193E+02  0.34797729850E+02 -0.11417168642E+02  0.41606467091E+02  0.00000000000E+00 0.  1.
</event>
<event>
12    1  0.8297444E-002  0.2460708E+03  0.7818608E-02  0.1115859E+00
         21   -1    0    0  503  502  0.00000000000E+00  0.00000000000E+00  0.19888786684E+03  0.19888786684E+03  0.00000000000E+00 0.  1.
         21   -1    0    0  501  503 -0.00000000000E+00 -0.00000000000E+00 -0.41999646586E+03  0.41999646586E+03  0.00000000000E+00 0. -1.
          6    2    1    2  501    0  0.92017777117E+02 -0.14950501582E+03 -0.27315602218E+03  0.36764797145E+03  0.17242910834E+03 0.  0.
         24    2    3    3    0    0  0.71180798637E+02 -0.87726640141E+02 -0.71706577121E+02  0.15585865093E+03  0.79921313696E+02 0.  0.
         -6    2    1    2    0  502 -0.92017777117E+02  0.14950501582E+03  0.52047423160E+02  0.25123636125E+03  0.17202253892E+03 0.  0.
        -24    2    5    5    0    0  0.33537422504E+00  0.11954945459E+03  0.54591422726E+02  0.15399952592E+03  0.80271078107E+02 0.  0.
          5    1    3    3  501    0  0.20836978480E+02 -0.61778375677E+02 -0.20144944506E+03  0.21178932052E+03  0.47000000000E+01 0. -1.
        -11    1    4    4    0    0  0.84184005716E+01  0.10102715404E+02  0.75626267277E+01  0.15169958792E+02  0.00000000000E+00 0.  1.
         12    1    4    4    0    0  0.62762398065E+02 -0.97829355545E+02 -0.79269203848E+02  0.14068869214E+03  0.00000000000E+00 0. -1.
         -5    1    5    5    0  502 -0.92353151342E+02  0.29955561229E+02 -0.25439995657E+01  0.97236835331E+02  0.47000000000E+01 0.  1.
         13    1    6    6    0    0  0.38419934807E+02  0.60533851297E+02  0.40559850202E+02  0.82374389174E+02  0.00000000000E+00 0. -1.
        -14    1    6    6    0    0 -0.38084560582E+02  0.59015603292E+02  0.14031572524E+02  0.71625136748E+02  0.00000000000E+00 0.  1.
</event>
<event>
12    1  0.8297444E-002  0.1892837E+03  0.7818608E-02  0.1159787E+00
         21   -1    0    0  501  502  0.00000000000E+00  0.00000000000E+00  0.79438185993E+03  0.79438185993E+03  0.00000000000E+00 0. -1.
         21   -1    0    0  502  503 -0.00000000000E+00 -0.00000000000E+00 -0.58070349063E+02  0.58070349063E+02  0.00000000000E+00 0. -1.
         -6    2    1    2    0  503 -0.73980980839E+02 -0.12440230529E+02  0.15911545607E+03  0.24501198940E+03  0.17054384108E+03 0.  0.
        -24    2    3    3    0    0 -0.19183064939E+02  0.54181580454E+02  0.60454077826E+02  0.11387299885E+03  0.77516002873E+02 0.  0.
          6    2    1    2  501    0  0.73980980839E+02  0.12440230529E+02  0.57719605480E+03  0.60744021959E+03  0.17378259360E+03 0.  0.
         24    2    5    5    0    0  0.11801746535E+03  0.50868040373E+01  0.41318857544E+03  0.43739955347E+03  0.81483573778E+02 0.  0.
          5    1    5    5  501    0 -0.44036484513E+02  0.73534264920E+01  0.16400747936E+03  0.17004066612E+03  0.47000000000E+01 0. -1.
        -11    1    6    6    0    0  0.78645843788E+02 -0.16895199656E+02  0.14840320042E+03  0.16880203320E+03  0.00000000000E+00 0.  1.
         12    1    6    6    0    0  0.39371621564E+02  0.21982003694E+02  0.26478537502E+03  0.26859752027E+03  0.00000000000E+00 0. -1.
         -5    1    3    3    0  503 -0.54797915900E+02 -0.66621810983E+02  0.98661378242E+02  0.13113899055E+03  0.47000000000E+01 0.  1.
         13    1    4    4    0    0 -0.34900688380E+02  0.84330263367E+00  0.48684229483E+01  0.35248698568E+02  0.00000000000E+00 0. -1.
        -14    1    4    4    0    0  0.15717623441E+02  0.53338277820E+02  0.55585654877E+02  0.78624300287E+02  0.00000000000E+00 0.  1.
</event>
<event>
12    1  0.8297444E-002  0.2173728E+03  0.7818608E-02  0.1135865E+00
         21   -1    0    0  503  502  0.00000000000E+00  0.00000000000E+00  0.90179706018E+02  0.90179706018E+02  0.00000000000E+00 0. -1.
         21   -1    0    0  501  503 -0.00000000000E+00 -0.00000000000E+00 -0.62948745258E+03  0.62948745258E+03  0.00000000000E+00 0. -1.
          6    2    1    2  501    0 -0.11452549091E+03 -0.67427603048E+02 -0.41702870306E+03  0.47026164984E+03  0.17196078162E+03 0.  0.
         24    2    3    3    0    0 -0.13253918249E+03 -0.12670888247E+02 -0.26397534475E+03  0.30664560115E+03  0.81371713529E+02 0.  0.
         -6    2    1    2    0  502  0.11452549091E+03  0.67427603048E+02 -0.12227904350E+03  0.24940550875E+03  0.17201271347E+03 0.  0.
        -24    2    5    5    0    0  0.13251781752E+03  0.11307393386E+02 -0.61941238451E+02  0.16493100096E+03  0.75343805002E+02 0.  0.
          5    1    3    3  501    0  0.18013691580E+02 -0.54756714801E+02 -0.15305335831E+03  0.16361604869E+03  0.47000000000E+01 0. -1.
        -11    1    4    4    0    0 -0.34011534033E+02  0.15032075249E+02 -0.20337913105E+02  0.42383704923E+02  0.00000000000E+00 0.  1.
         12    1    4    4    0    0 -0.98527648462E+02 -0.27702963496E+02 -0.24363743165E+03  0.26426189623E+03  0.00000000000E+00 0. -1.
         -5    1    5    5    0  502 -0.17992326601E+02  0.56120209662E+02 -0.60337805050E+02  0.84474507795E+02  0.47000000000E+01 0.  1.
         11    1    6    6    0    0  0.41870165137E+02  0.39868401081E+02 -0.23832119533E+02  0.62534550888E+02  0.00000000000E+00 0. -1.
        -12    1    6    6    0    0  0.90647652379E+02 -0.28561007695E+02 -0.38109118918E+02  0.10239645007E+03  0.00000000000E+00 0.  1.
</event>
<event>
12    1  0.8297444E-002  0.2109276E+03  0.7818608E-02  0.1141014E+00
         21   -1    0    0  501  502  0.00000000000E+00  0.00000000000E+00  0.72035694208E+03  0.72035694208E+03  0.00000000000E+00 0. -1.
         21   -1    0    0  502  503 -0.00000000000E+00 -0.00000000000E+00 -0.15783565409E+03  0.15783565409E+03  0.00000000000E+00 0.  1.
         -6    2    1    2    0  503  0.10373945686E+03 -0.61829803701E+02 -0.62031817557E+02  0.21898321057E+03  0.17181647356E+03 0.  0.
        -24    2    3    3    0    0  0.13257714213E+03 -0.58105521753E+02 -0.18534982325E+02  0.16645181955E+03  0.80060679412E+02 0.  0.
          6    2    1    2  501    0 -0.10373945686E+03  0.61829803701E+02  0.62455310554E+03  0.65920938560E+03  0.17293245178E+03 0.  0.
         24    2    5    5    0    0 -0.80522303411E+02  0.19825269575E+02  0.57817796070E+03  0.59230526644E+03  0.98279660900E+02 0.  0.
          5    1    5    5  501    0 -0.23217153451E+02  0.42004534125E+02  0.46375144837E+02  0.66904119157E+02  0.47000000000E+01 0. -1.
        -13    1    6    6    0    0 -0.21886436555E+02 -0.38880565863E+02  0.23873264061E+03  0.24286619402E+03  0.00000000000E+00 0.  1.
         14    1    6    6    0    0 -0.58635866856E+02  0.58705835438E+02  0.33944532010E+03  0.34943907242E+03  0.00000000000E+00 0. -1.
         -5    1    3    3    0  503 -0.28837685267E+02 -0.37242819474E+01 -0.43496835232E+02  0.52531391023E+02  0.47000000000E+01 0.  1.
         13    1    4    4    0    0 -0.95397569692E+01  0.17223330959E+01 -0.67358746566E+01  0.11804465329E+02  0.00000000000E+00 0. -1.
        -14    1    4    4    0    0  0.14211689910E+03 -0.59827854849E+02 -0.11799107668E+02  0.15464735422E+03  0.00000000000E+00 0.  1.
</event>
<event>
12    1  0.8297444E-002  0.1835666E+03  0.7818608E-02  0.1166540E+00
         21   -1    0    0  501  502  0.00000000000E+00  0.00000000000E+00  0.20091772881E+03  0.20091772881E+03  0.00000000000E+00 0.  1.
         21   -1    0    0  502  503 -0.00000000000E+00 -0.00000000000E+00 -0.27579586908E+03  0.27579586908E+03  0.00000000000E+00 0.  1.
         -6    2    1    2    0  503 -0.14211387839E+02  0.30860607321E+02 -0.19150994318E+03  0.25922872892E+03  0.17137425400E+03 0.  0.
        -24    2    3    3    0    0 -0.32525758450E+02 -0.17963115574E+02 -0.35797929695E+02  0.94950022965E+02  0.79708322067E+02 0.  0.
          6    2    1    2  501    0  0.14211387839E+02 -0.30860607321E+02  0.11663180292E+03  0.21748486897E+03  0.18039498372E+03 0.  0.
         24    2    5    5    0    0  0.57751181845E+02 -0.71923304794E+01  0.13025982028E+03  0.16587368948E+03  0.84614014577E+02 0.  0.
          5    1    5    5  501    0 -0.43539794006E+02 -0.23668276841E+02 -0.13628017360E+02  0.51611179486E+02  0.47000000000E+01 0. -1.
        -13    1    6    6    0    0  0.79020765427E+02 -0.14587580733E+01  0.88454822408E+02  0.11861983372E+03  0.00000000000E+00 0.  1.
         14    1    6    6    0    0 -0.21269583581E+02 -0.57335724061E+01  0.41804997867E+02  0.47253855768E+02  0.00000000000E+00 0. -1.
         -5    1    3    3    0  503  0.18314370610E+02  0.48823722894E+02 -0.15571201349E+03  0.16427870596E+03  0.47000000000E+01 0.  1.
         13    1    4    4    0    0 -0.82702023402E+01 -0.48345446366E+02 -0.18999449609E+02  0.52599025813E+02  0.00000000000E+00 0. -1.
        -14    1    4    4    0    0 -0.24255556109E+02  0.30382330792E+02 -0.16798480086E+02  0.42350997152E+02  0.00000000000E+00 0.  1.
</event>
<event>
12    1  0.8297444E-002  0.1740916E+03  0.7818608E-02  0.1174234E+00
         21   -1    0    0  503  502  0.00000000000E+00  0.00000000000E+00  0.25968109949E+03  0.25968109949E+03  0.00000000000E+00 0.  1.
         21   -1    0    0  501  503 -0.00000000000E+00 -0.00000000000E+00 -0.12880446940E+03  0.12880446940E+03  0.00000000000E+00 0.  1.
          6    2    1    2  501    0 -0.18019194605E+02  0.46971217150E+02  0.18506444343E+01  0.17179318258E+03  0.16425128943E+03 0.  0.
         24    2    3    3    0    0 -0.53775667583E+02  0.78019730193E+02  0.54047982812E+01  0.12407256301E+03  0.79911753357E+02 0.  0.
         -6    2    1    2    0  502  0.18019194605E+02 -0.46971217150E+02  0.12902598566E+03  0.21669238631E+03  0.16666402940E+03 0.  0.
        -24    2    5    5    0    0  0.12253572663E+02 -0.26090873066E+02  0.15897807782E+03  0.17943048902E+03  0.78040934527E+02 0.  0.
          5    1    3    3  501    0  0.35756472978E+02 -0.31048513043E+02 -0.35541538469E+01  0.47720619564E+02  0.47000000000E+01 0. -1.
        -11    1    4    4    0    0 -0.25347287216E+02  0.31515397376E+01 -0.27464103259E+02  0.37505921396E+02  0.00000000000E+00 0.  1.
         12    1    4    4    0    0 -0.28428380367E+02  0.74868190455E+02  0.32868901540E+02  0.86566641617E+02  0.00000000000E+00 0. -1.
         -5    1    5    5    0  502  0.57656219424E+01 -0.20880344084E+02 -0.29952092159E+02  0.37261897297E+02  0.47000000000E+01 0.  1.
         13    1    6    6    0    0  0.60605231207E-01  0.11500347571E+02  0.12979601507E+03  0.13030451717E+03  0.00000000000E+00 0. -1.
        -14    1    6    6    0    0  0.12192967432E+02 -0.37591220636E+02  0.29182062753E+02  0.49125971850E+02  0.00000000000E+00 0.  1.
</event>
<event>
12    1  0.8297444E-002  0.2646134E+03  0.7818608E-02  0.1104404E+00
         21   -1    0    0  501  502  0.00000000000E+00  0.00000000000E+00  0.47132180056E+03  0.47132180056E+03  0.00000000000E+00 0.  1.
         21   -1    0    0  502  503 -0.00000000000E+00 -0.00000000000E+00 -0.15854867078E+03  0.15854867078E+03  0.00000000000E+00 0. -1.
         -6    2    1    2    0  503  0.93253794263E+02 -0.17876739474E+03  0.23544213185E+03  0.35418888456E+03  0.17135552787E+03 0.  0.
        -24    2    3    3    0    0  0.11962533890E+03 -0.85681890537E+02  0.13704373614E+03  0.21611389140E+03  0.79199876054E+02 0.  0.
          6    2    1    2  501    0 -0.93253794263E+02  0.17876739474E+03  0.77330997928E+02  0.27568158678E+03  0.17136569808E+03 0.  0.
         24    2    5    5    0    0 -0.11079961228E+03  0.10807870062E+03  0.97987455205E+02  0.19982958329E+03  0.79829577026E+02 0.  0.
          5    1    5    5  501    0  0.17545818021E+02  0.70688694120E+02 -0.20656457277E+02  0.75852003491E+02  0.47000000000E+01 0. -1.
        -13    1    6    6    0    0 -0.44657295435E+02  0.29195501175E+02 -0.57745110928E+01  0.53665597013E+02  0.00000000000E+00 0.  1.
         14    1    6    6    0    0 -0.66142316850E+02  0.78883199447E+02  0.10376196630E+03  0.14616398627E+03  0.00000000000E+00 0. -1.
         -5    1    3    3    0  503 -0.26371544634E+02 -0.93085504206E+02  0.98398395706E+02  0.13807499316E+03  0.47000000000E+01 0.  1.
         13    1    4    4    0    0  0.69230347682E+02 -0.29834308499E+02  0.21767446910E+02  0.78464952359E+02  0.00000000000E+00 0. -1.
        -14    1    4    4    0    0  0.50394991215E+02 -0.55847582038E+02  0.11527628923E+03  0.13764893904E+03  0.00000000000E+00 0.  1.
</event>
<event>
12    1  0.8297444E-002  0.2834374E+03  0.7818608E-02  0.1093900E+00
         21   -1    0    0  503  502  0.00000000000E+00  0.00000000000E+00  0.12156381692E+03  0.12156381692E+03  0.00000000000E+00 0. -1.
         21   -1    0    0  501  503 -0.00000000000E+00 -0.00000000000E+00 -0.14566444599E+04  0.14566444599E+04  0.00000000000E+00 0.  1.
          6    2    1    2  501    0  0.13471046156E+03 -0.18151846398E+03 -0.12515565438E+04  0.12832499944E+04  0.17099972145E+03 0.  0.
         24    2    3    3    0    0  0.95642356442E+02 -0.98456506206E+02 -0.10501826222E+04  0.10618924737E+04  0.76752471715E+02 0.  0.
         -6    2    1    2    0  502 -0.13471046156E+03  0.18151846398E+03 -0.83524099190E+02  0.29495828237E+03  0.17008307375E+03 0.  0.
        -24    2    5    5    0    0 -0.15895726447E+03  0.15826910249E+03 -0.42660869395E+02  0.24185146727E+03  0.79722404094E+02 0.  0.
          5    1    3    3  501    0  0.39068105115E+02 -0.83061957773E+02 -0.20137392159E+03  0.22135752068E+03  0.47000000000E+01 0. -1.
        -11    1    4    4    0    0  0.10745820091E+03 -0.75672067186E+02 -0.85960016889E+03  0.86958954515E+03  0.00000000000E+00 0.  1.
         12    1    4    4    0    0 -0.11815844466E+02 -0.22784439020E+02 -0.19058245328E+03  0.19230292858E+03  0.00000000000E+00 0. -1.
         -5    1    5    5    0  502  0.24246802910E+02  0.23249361493E+02 -0.40863229795E+02  0.53106815103E+02  0.47000000000E+01 0.  1.
         13    1    6    6    0    0 -0.11226285111E+03  0.56278425516E+02 -0.16389572468E+02  0.12664449061E+03  0.00000000000E+00 0. -1.
        -14    1    6    6    0    0 -0.46694413360E+02  0.10199067697E+03 -0.26271296927E+02  0.11520697666E+03  0.00000000000E+00 0.  1.
</event>
<event>
12    1  0.8297444E-002  0.1850879E+03  0.7818608E-02  0.1164845E+00
         21   -1    0    0  501  502  0.00000000000E+00  0.00000000000E+00  0.34878112482E+03  0.34878112482E+03  0.00000000000E+00 0.  1.
         21   -1    0    0  502  503 -0.00000000000E+00 -0.00000000000E+00 -0.98897133937E+02  0.98897133937E+02  0.00000000000E+00 0.  1.
         -6    2    1    2    0  503  0.15985573362E+02 -0.44805430717E+02  0.73039752729E+02  0.19168718405E+03  0.17072230631E+03 0.  0.
        -24    2    3    3    0    0  0.23598745068E+02 -0.81071934378E+02  0.80167833508E+01  0.11669854346E+03  0.80154363055E+02 0.  0.
          6    2    1    2  501    0 -0.15985573362E+02  0.44805430717E+02  0.17684423816E+03  0.25599107471E+03  0.17887001030E+03 0.  0.
         24    2    5    5    0    0  0.14998846107E+02  0.41931784595E+02  0.19940992432E+03  0.21726650520E+03  0.73872704148E+02 0.  0.
          5    1    5    5  501    0 -0.30984419469E+02  0.28736461219E+01 -0.22565686166E+02  0.38724569514E+02  0.47000000000E+01 0. -1.
        -13    1    6    6    0    0 -0.26693284691E+02  0.33428272441E+02  0.11586676269E+03  0.12351148749E+03  0.00000000000E+00 0.  1.
         14    1    6    6    0    0  0.41692130798E+02  0.85035121539E+01  0.83543161627E+02  0.93755017701E+02  0.00000000000E+00 0. -1.
         -5    1    3    3    0  503 -0.76131717053E+01  0.36266503661E+02  0.65022969378E+02  0.74988640593E+02  0.47000000000E+01 0.  1.
         13    1    4    4    0    0 -0.20963137108E+02  0.29464673751E+00  0.11405108104E+02  0.23866638325E+02  0.00000000000E+00 0. -1.
        -14    1    4    4    0    0  0.44561882175E+02 -0.81366581116E+02 -0.33883247527E+01  0.92831905130E+02  0.00000000000E+00 0.  1.
</event>
<event>
12    1  0.8297444E-002  0.2346438E+03  0.7818608E-02  0.1123536E+00
         21   -1    0    0  503  502  0.00000000000E+00  0.00000000000E+00  0.91681023727E+03  0.91681023727E+03  0.00000000000E+00 0. -1.
         21   -1    0    0  501  503 -0.00000000000E+00 -0.00000000000E+00 -0.60328782322E+02  0.60328782322E+02  0.00000000000E+00 0. -1.
          6    2    1    2  501    0 -0.86855196238E+01  0.15847820013E+03  0.38631443276E+03  0.45199178872E+03  0.17282059470E+03 0.  0.
         24    2    3    3    0    0 -0.69438960610E+02  0.75985896705E+02  0.20917420067E+03  0.24730492413E+03  0.82524260201E+02 0.  0.
         -6    2    1    2    0  502  0.86855196238E+01 -0.15847820013E+03  0.47016702219E+03  0.52514723087E+03  0.17184820967E+03 0.  0.
        -24    2    5    5    0    0  0.21990960370E+02 -0.17114290489E+03  0.46935858229E+03  0.50616900452E+03  0.78333173897E+02 0.  0.
          5    1    3    3  501    0  0.60753440986E+02  0.82492303422E+02  0.17714023208E+03  0.20468686460E+03  0.47000000000E+01 0. -1.
        -13    1    4    4    0    0 -0.13853000443E+02  0.52265194535E+02  0.16155481462E+03  0.17036289005E+03  0.00000000000E+00 0.  1.
         14    1    4    4    0    0 -0.55585960167E+02  0.23720702170E+02  0.47619386053E+02  0.76942034072E+02  0.00000000000E+00 0. -1.
         -5    1    5    5    0  502 -0.13305440747E+02  0.12664704765E+02  0.80843989779E+00  0.18978226348E+02  0.47000000000E+01 0.  1.
         11    1    6    6    0    0  0.62040962469E+01 -0.14543284128E+03  0.44231683206E+03  0.46565371475E+03  0.00000000000E+00 0. -1.
        -12    1    6    6    0    0  0.15786864123E+02 -0.25710063615E+02  0.27041750232E+02  0.40515289775E+02  0.00000000000E+00 0.  1.
</event>
<event>
12    1  0.8297444E-002  0.2157153E+03  0.7818608E-02  0.1137544E+00
         21   -1    0    0  503  502  0.00000000000E+00  0.00000000000E+00  0.18232187258E+03  0.18232187258E+03  0.00000000000E+00 0. -1.
         21   -1    0    0  501  503 -0.00000000000E+00 -0.00000000000E+00 -0.47367561456E+03  0.47367561456E+03  0.00000000000E+00 0. -1.
          6    2    1    2  501    0  0.71638967090E+02  0.10451157301E+03  0.77994690591E+02  0.22938235274E+03  0.17458030098E+03 0.  0.
         24    2    3    3    0    0  0.75220445428E+02  0.34754621001E+02 -0.11607693218E+02  0.11567423287E+03  0.79873590858E+02 0.  0.
         -6    2    1    2    0  502 -0.71638967090E+02 -0.10451157301E+03 -0.36934843257E+03  0.42661513440E+03  0.17183537982E+03 0.  0.
        -24    2    5    5    0    0  0.12744592792E+02 -0.76844428925E+02 -0.13099447469E+03  0.17221239212E+03  0.80187684210E+02 0.  0.
          5    1    3    3  501    0 -0.35814783384E+01  0.69756952006E+02  0.89602383808E+02  0.11370811987E+03  0.47000000000E+01 0. -1.
        -11    1    4    4    0    0  0.89859987929E+02  0.16475023046E+02 -0.12663225111E+02  0.92231237036E+02  0.00000000000E+00 0.  1.
         12    1    4    4    0    0 -0.14639542501E+02  0.18279597954E+02  0.10555318939E+01  0.23442995832E+02  0.00000000000E+00 0. -1.
         -5    1    5    5    0  502 -0.84383559881E+02 -0.27667144082E+02 -0.23835395788E+03  0.25440274228E+03  0.47000000000E+01 0.  1.
         13    1    6    6    0    0 -0.27954092801E+02 -0.45787543766E+02 -0.96726399486E+02  0.11060708307E+03  0.00000000000E+00 0. -1.
        -14    1    6    6    0    0  0.40698685593E+02 -0.31056885159E+02 -0.34268075200E+02  0.61605309046E+02  0.00000000000E+00 0.  1.
</event>
<event>
12    1  0.8297444E-002  0.1829427E+03  0.7818608E-02  0.1166836E+00
         21   -1    0    0  501  502  0.00000000000E+00  0.00000000000E+00  0.13746853261E+04  0.13746853261E+04  0.00000000000E+00 0.  1.
         21   -1    0    0  502  503 -0.00000000000E+00 -0.00000000000E+00 -0.28195458068E+02  0.28195458068E+02  0.00000000000E+00 0.  1.
         -6    2    1    2    0  503 -0.60811273625E+02  0.27868406968E+00  0.37033961748E+03  0.40973559781E+03  0.16441940024E+03 0.  0.
        -24    2    3    3    0    0  0.14459525522E+02  0.40599665996E+02  0.19345294662E+03  0.21326051259E+03  0.78731143235E+02 0.  0.
          6    2    1    2  501    0  0.60811273625E+02 -0.27868406968E+00  0.97615025053E+03  0.99314518633E+03  0.17253973704E+03 0.  0.
         24    2    5    5    0    0  0.72159624682E+02  0.37827035517E+01  0.33574239043E+03  0.35260666507E+03  0.79919880126E+02 0.  0.
          5    1    5    5  501    0 -0.11348351057E+02 -0.40613876213E+01  0.64040786010E+03  0.64053852126E+03  0.47000000000E+01 0. -1.
        -11    1    6    6    0    0  0.70968937226E+02  0.33162191748E+02  0.24266989938E+03  0.25500000211E+03  0.00000000000E+00 0.  1.
         12    1    6    6    0    0  0.11906874564E+01 -0.29379488196E+02  0.93072491052E+02  0.97606662959E+02  0.00000000000E+00 0. -1.
         -5    1    3    3    0  503 -0.75270799147E+02 -0.40320981926E+02  0.17688667086E+03  0.19647508523E+03  0.47000000000E+01 0.  1.
         13    1    4    4    0    0  0.36046962385E+02 -0.65622294981E+01  0.63080032830E+02  0.72948864933E+02  0.00000000000E+00 0. -1.
        -14    1    4    4    0    0 -0.21587436863E+02  0.47161895494E+02  0.13037291379E+03  0.14031164765E+03  0.00000000000E+00 0.  1.
</event>
<event>
12    1  0.8297444E-002  0.2161157E+03  0.7818608E-02  0.1137231E+00
         21   -1    0    0  501  502  0.00000000000E+00  0.00000000000E+00  0.31369473220E+02  0.31369473220E+02  0.00000000000E+00 0. -1.
         21   -1    0    0  502  503 -0.00000000000E+00 -0.00000000000E+00 -0.19773445470E+04  0.19773445470E+04  0.00000000000E+00 0. -1.
         -6    2    1    2    0  503  0.94082937165E+02 -0.92147093704E+02 -0.14834394913E+04  0.14990993082E+04  0.17135730377E+03 0.  0.
        -24    2    3    3    0    0  0.46622466689E+02 -0.72886059316E+02 -0.13638461452E+04  0.13689142778E+04  0.79774433227E+02 0.  0.
          6    2    1    2  501    0 -0.94082937165E+02  0.92147093704E+02 -0.46253558245E+03  0.50961471199E+03  0.16859805366E+03 0.  0.
         24    2    5    5    0    0 -0.96362571214E+02  0.25797879719E+02 -0.38159017141E+03  0.40482127472E+03  0.91202685339E+02 0.  0.
          5    1    5    5  501    0  0.22796340497E+01  0.66349213985E+02 -0.80945411034E+02  0.10479343727E+03  0.47000000000E+01 0. -1.
        -11    1    6    6    0    0  0.77302050206E+01 -0.15468800529E+02 -0.10517503815E+03  0.10658718736E+03  0.00000000000E+00 0.  1.
         12    1    6    6    0    0 -0.10409277623E+03  0.41266680248E+02 -0.27641513326E+03  0.29823408735E+03  0.00000000000E+00 0. -1.
         -5    1    3    3    0  503  0.47460470475E+02 -0.19261034388E+02 -0.11959334607E+03  0.13018503035E+03  0.47000000000E+01 0.  1.
         11    1    4    4    0    0 -0.20001820037E+02 -0.26064403896E+01 -0.29574817982E+03  0.29643524116E+03  0.00000000000E+00 0. -1.
        -12    1    4    4    0    0  0.66624286726E+02 -0.70279618926E+02 -0.10680979654E+04  0.10724790367E+04  0.00000000000E+00 0.  1.
</event>
<event>
12    1  0.8297444E-002  0.3297918E+03  0.7818608E-02  0.1071290E+00
         21   -1    0    0  501  502  0.00000000000E+00  0.00000000000E+00  0.21886478636E+03  0.21886478636E+03  0.00000000000E+00 0.  1.
         21   -1    0    0  502  503 -0.00000000000E+00 -0.00000000000E+00 -0.53976116162E+03  0.53976116162E+03  0.00000000000E+00 0.  1.
         -6    2    1    2    0  503  0.24386467283E+03  0.14016940705E+03 -0.26844377916E+03  0.42523486459E+03  0.17217777490E+03 0.  0.
        -24    2    3    3    0    0  0.24538724528E+03  0.14466360430E+03 -0.28292477313E+03  0.40928791435E+03  0.79546910867E+02 0.  0.
          6    2    1    2  501    0 -0.24386467283E+03 -0.14016940705E+03 -0.52452596100E+02  0.33339108339E+03  0.17111662198E+03 0.  0.
         24    2    5    5    0    0 -0.11388685681E+03 -0.13744733933E+03 -0.76400411506E+01  0.19579785176E+03  0.80102692089E+02 0.  0.
          5    1    5    5  501    0 -0.12997781602E+03 -0.27220677155E+01 -0.44812554950E+02  0.13759323163E+03  0.47000000000E+01 0. -1.
        -11    1    6    6    0    0 -0.11712569284E+03 -0.89030891205E+02 -0.61204186379E+01  0.14724940419E+03  0.00000000000E+00 0.  1.
         12    1    6    6    0    0  0.32388360271E+01 -0.48416448127E+02 -0.15196225127E+01  0.48548447561E+02  0.00000000000E+00 0. -1.
         -5    1    3    3    0  503 -0.15225724494E+01 -0.44941972521E+01  0.14480993968E+02  0.15946950245E+02  0.47000000000E+01 0.  1.
         11    1    4    4    0    0  0.29610507210E+02  0.28511103033E+02 -0.84520485762E+02  0.93986050278E+02  0.00000000000E+00 0. -1.
        -12    1    4    4    0    0  0.21577673807E+03  0.11615250127E+03 -0.19840428737E+03  0.31530186407E+03  0.00000000000E+00 0.  1.
</event>
<event>
12    1  0.8297444E-002  0.1878386E+03  0.7818608E-02  0.1160462E+00
         21   -1    0    0  501  502  0.00000000000E+00  0.00000000000E+00  0.92808844810E+02  0.92808844810E+02  0.00000000000E+00 0.  1.
         21   -1    0    0  502  503 -0.00000000000E+00 -0.00000000000E+00 -0.12434308433E+04  0.12434308433E+04  0.00000000000E+00 0.  1.
         -6    2    1    2    0  503  0.68279590141E+02 -0.36917704932E+02 -0.11321791206E+04  0.11476553961E+04  0.17105065829E+03 0.  0.
        -24    2    3    3    0    0  0.80255145375E+02 -0.55047397192E+02 -0.53692241673E+03  0.55198373053E+03  0.83242134037E+02 0.  0.
          6    2    1    2  501    0 -0.68279590141E+02  0.36917704932E+02 -0.18442877939E+02  0.18858429206E+03  0.17087678631E+03 0.  0.
         24    2    5    5    0    0 -0.67979057952E+02 -0.11179899113E+02  0.39932607778E+02  0.11280001159E+03  0.79894223732E+02 0.  0.
          5    1    5    5  501    0 -0.30053218923E+00  0.48097604045E+02 -0.58375485717E+02  0.75784280475E+02  0.47000000000E+01 0. -1.
        -11    1    6    6    0    0 -0.61841353665E+02 -0.37763407520E+02  0.11450295875E+02  0.73358961594E+02  0.00000000000E+00 0.  1.
         12    1    6    6    0    0 -0.61377042870E+01  0.26583508407E+02  0.28482311903E+02  0.39441049992E+02  0.00000000000E+00 0. -1.
         -5    1    3    3    0  503 -0.11975555234E+02  0.18129692260E+02 -0.59525670385E+03  0.59567166555E+03  0.47000000000E+01 0.  1.
         13    1    4    4    0    0  0.35599940073E+01 -0.35891850877E+02 -0.30136497689E+03  0.30351564674E+03  0.00000000000E+00 0. -1.
        -14    1    4    4    0    0  0.76695151368E+02 -0.19155546315E+02 -0.23555743984E+03  0.24846808379E+03  0.00000000000E+00 0.  1.
</event>
<event>
12    1  0.8297444E-002  0.1810225E+03  0.7818608E-02  0.1167171E+00
         21   -1    0    0  503  502  0.00000000000E+00  0.00000000000E+00  0.84401227976E+02  0.84401227976E+02  0.00000000000E+00 0. -1.
         21   -1    0    0  501  503 -0.00000000000E+00 -0.00000000000E+00 -0.41856503755E+03  0.41856503755E+03  0.00000000000E+00 0. -1.
          6    2    1    2  501    0  0.35744154954E+02 -0.44824306776E+02 -0.23755301212E+03  0.29777661913E+03  0.17015468915E+03 0.  0.
         24    2    3    3    0    0  0.34321226854E+02 -0.62096493134E+02 -0.66305624248E+02  0.12559035080E+03  0.79640312249E+02 0.  0.
         -6    2    1    2    0  502 -0.35744154954E+02  0.44824306776E+02 -0.96610797450E+02  0.20518964640E+03  0.17170405270E+03 0.  0.
        -24    2    5    5    0    0  0.39600116465E+02  0.63226405299E+01 -0.76898241906E+02  0.11818497764E+03  0.80288257700E+02 0.  0.
          5    1    3    3  501    0  0.14229281002E+01  0.17272186358E+02 -0.17124738788E+03  0.17218626833E+03  0.47000000000E+01 0. -1.
        -11    1    4    4    0    0  0.12031188333E+02  0.18625011110E+02 -0.80983947988E+01  0.23605603781E+02  0.00000000000E+00 0.  1.
         12    1    4    4    0    0  0.22290038521E+02 -0.80721504243E+02 -0.58207229450E+02  0.10198474702E+03  0.00000000000E+00 0. -1.
         -5    1    5    5    0  502 -0.75344271419E+02  0.38501666246E+02 -0.19712555544E+02  0.87004668757E+02  0.47000000000E+01 0.  1.
         13    1    6    6    0    0 -0.14606653628E+02  0.43455973089E+01 -0.59196785354E+02  0.61126900318E+02  0.00000000000E+00 0. -1.
        -14    1    6    6    0    0  0.54206770093E+02  0.19770432209E+01 -0.17701456552E+02  0.57058077324E+02  0.00000000000E+00 0.  1.
</event>
<event>
12    1  0.8297444E-002  0.2005092E+03  0.7818608E-02  0.1149596E+00
         21   -1    0    0  503  502  0.00000000000E+00  0.00000000000E+00  0.95156123911E+02  0.95156123911E+02  0.00000000000E+00 0.  1.
         21   -1    0    0  501  503 -0.00000000000E+00 -0.00000000000E+00 -0.10571873148E+04  0.10571873148E+04  0.00000000000E+00 0.  1.
          6    2    1    2  501    0  0.89941817028E+01 -0.99837899719E+02 -0.92779974765E+03  0.94893321264E+03  0.17208535322E+03 0.  0.
         24    2    3    3    0    0 -0.13748940021E+02 -0.11280681923E+03 -0.90067742317E+03  0.91094435975E+03  0.75401552587E+02 0.  0.
         -6    2    1    2    0  502 -0.89941817028E+01  0.99837899719E+02 -0.34231443214E+02  0.20341022604E+03  0.17365317973E+03 0.  0.
        -24    2    5    5    0    0  0.91147388687E+01  0.12877052720E+01  0.28189891328E+02  0.85263762551E+02  0.79940619098E+02 0.  0.
          5    1    3    3  501    0  0.22743121724E+02  0.12968919507E+02 -0.27122324473E+02  0.37988852887E+02  0.47000000000E+01 0. -1.
        -13    1    4    4    0    0 -0.26823117559E+02 -0.40250378931E+02 -0.57479417120E+03  0.57682572055E+03  0.00000000000E+00 0.  1.
         14    1    4    4    0    0  0.13074177538E+02 -0.72556440295E+02 -0.32588325198E+03  0.33411863921E+03  0.00000000000E+00 0. -1.
         -5    1    5    5    0  502 -0.18108920571E+02  0.98550194447E+02 -0.62421334542E+02  0.11814646349E+03  0.47000000000E+01 0.  1.
         13    1    6    6    0    0  0.19901897281E+02  0.15359339245E+02 -0.21138522864E+02  0.32845577576E+02  0.00000000000E+00 0. -1.
        -14    1    6    6    0    0 -0.10787158413E+02 -0.14071633973E+02  0.49328414192E+02  0.52418184974E+02  0.00000000000E+00 0.  1.
</event>
<event>
12    1  0.8297444E-002  0.1964912E+03  0.7818608E-02  0.1152766E+00
         21   -1    0    0  503  502  0.00000000000E+00  0.00000000000E+00  0.38635251397E+03  0.38635251397E+03  0.00000000000E+00 0.  1.
         21   -1    0    0  501  503 -0.00000000000E+00 -0.00000000000E+00 -0.16002647204E+03  0.16002647204E+03  0.00000000000E+00 0.  1.
          6    2    1    2  501    0  0.91738984735E+02  0.16373820312E+02 -0.54382507115E+02  0.20373325686E+03  0.17281678032E+03 0.  0.
         24    2    3    3    0    0  0.35753522909E+02  0.19366426477E+02  0.36525418434E+02  0.96823628883E+02  0.79920811078E+02 0.  0.
         -6    2    1    2    0  502 -0.91738984735E+02 -0.16373820312E+02  0.28070854904E+03  0.34264572914E+03  0.17298746452E+03 0.  0.
        -24    2    5    5    0    0 -0.27754978419E+02  0.18185886964E+02  0.24682431426E+03  0.26228057626E+03  0.82266598690E+02 0.  0.
          5    1    3    3  501    0  0.55985461826E+02 -0.29926061652E+01 -0.90907925548E+02  0.10690962798E+03  0.47000000000E+01 0. -1.
        -13    1    4    4    0    0  0.38880954544E+02  0.29929673523E+02 -0.90860609564E+01  0.49900606080E+02  0.00000000000E+00 0.  1.
         14    1    4    4    0    0 -0.31274316357E+01 -0.10563247046E+02  0.45611479390E+02  0.46923022803E+02  0.00000000000E+00 0. -1.
         -5    1    5    5    0  502 -0.63984006316E+02 -0.34559707276E+02  0.33884234785E+02  0.80365152885E+02  0.47000000000E+01 0.  1.
         13    1    6    6    0    0  0.27895654558E+02  0.17119321323E+02  0.80940544453E+02  0.87307562342E+02  0.00000000000E+00 0. -1.
        -14    1    6    6    0    0 -0.55650632977E+02  0.10665656415E+01  0.16588376981E+03  0.17497301391E+03  0.00000000000E+00 0.  1.
</event>
<event>
12    1  0.8297444E-002  0.1791858E+03  0.7818608E-02  0.1168812E+00
         21   -1    0    0  501  502  0.00000000000E+00  0.00000000000E+00  0.19497933039E+03  0.19497933039E+03  0.00000000000E+00 0.  1.
         21   -1    0    0  502  503 -0.00000000000E+00 -0.00000000000E+00 -0.17693034494E+03  0.17693034494E+03  0.00000000000E+00 0.  1.
         -6    2    1    2    0  503 -0.49425563564E+02 -0.88149437395E+01 -0.41517689409E+02  0.18393274982E+03  0.17200857059E+03 0.  0.
        -24    2    3    3    0    0 -0.94235584247E+01  0.44132347615E+02  0.21261800310E+02  0.92461823255E+02  0.77850221887E+02 0.  0.
          6    2    1    2  501    0  0.49425563564E+02  0.88149437395E+01  0.59566674857E+02  0.18797692552E+03  0.17107468020E+03 0.  0.
         24    2    5    5    0    0  0.80059285655E+02  0.21949045979E+02  0.86557252897E+02  0.14483169550E+03  0.81196133849E+02 0.  0.
          5    1    5    5  501    0 -0.30633722090E+02 -0.13134102239E+02 -0.26990578041E+02  0.43145230023E+02  0.47000000000E+01 0. -1.
        -11    1    6    6    0    0 -0.91153411840E+00 -0.22326262271E+02  0.26779218908E+02  0.34877205260E+02  0.00000000000E+00 0.  1.
         12    1    6    6    0    0  0.80970819773E+02  0.44275308249E+02  0.59778033989E+02  0.10995449024E+03  0.00000000000E+00 0. -1.
         -5    1    3    3    0  503 -0.40002005140E+02 -0.52947291355E+02 -0.62779489719E+02  0.91470926563E+02  0.47000000000E+01 0.  1.
         13    1    4    4    0    0  0.32431434853E+02  0.33857575979E+02  0.10764735723E+02  0.48104188519E+02  0.00000000000E+00 0. -1.
        -14    1    4    4    0    0 -0.41854993278E+02  0.10274771636E+02  0.10497064586E+02  0.44357634736E+02  0.00000000000E+00 0.  1.
</event>
<event>
12    1  0.8297444E-002  0.1743611E+03  0.7818608E-02  0.1173576E+00
         21   -1    0    0  501  502  0.00000000000E+00  0.00000000000E+00  0.71108351204E+03  0.71108351204E+03  0.00000000000E+00 0. -1.
         21   -1    0    0  502  503 -0.00000000000E+00 -0.00000000000E+00 -0.44216304512E+02  0.44216304512E+02  0.00000000000E+00 0. -1.
         -6    2    1    2    0  503  0.14205238522E+02  0.13508203007E+02  0.26105862774E+03  0.31393218182E+03  0.17325572808E+03 0.  0.
        -24    2    3    3    0    0 -0.57505526084E+02  0.90757975193E+01  0.18527129507E+03  0.20939563427E+03  0.78305959192E+02 0.  0.
          6    2    1    2  501    0 -0.14205238522E+02 -0.13508203007E+02  0.40580857979E+03  0.44136763474E+03  0.17245441489E+03 0.  0.
         24    2    5    5    0    0 -0.51265566882E+02 -0.14306268160E+01  0.12013959533E+03  0.15301334837E+03  0.79682854950E+02 0.  0.
          5    1    5    5  501    0  0.37060328360E+02 -0.12077576191E+02  0.28566898446E+03  0.28835428637E+03  0.47000000000E+01 0. -1.
        -11    1    6    6    0    0 -0.31874186189E+02 -0.35814939356E+02  0.35615671955E+02  0.59725620257E+02  0.00000000000E+00 0.  1.
         12    1    6    6    0    0 -0.19391380693E+02  0.34384312540E+02  0.84523923377E+02  0.93287728116E+02  0.00000000000E+00 0. -1.
         -5    1    3    3    0  503  0.71710764606E+02  0.44324054874E+01  0.75787332675E+02  0.10453654755E+03  0.47000000000E+01 0.  1.
         11    1    4    4    0    0 -0.14222740098E+02 -0.26167679284E+02  0.22519353212E+02  0.37338385665E+02  0.00000000000E+00 0. -1.
        -12    1    4    4    0    0 -0.43282785986E+02  0.35243476804E+02  0.16275194185E+03  0.17205724860E+03  0.00000000000E+00 0.  1.
</event>
<event>
12    1  0.8297444E-002  0.2324489E+03  0.7818608E-02  0.1125119E+00
         21   -1    0    0  501  502  0.00000000000E+00  0.00000000000E+00  0.37578464021E+03  0.37578464021E+03  0.00000000000E+00 0. -1.
         21   -1    0    0  502  503 -0.00000000000E+00 -0.00000000000E+00 -0.14636392700E+03  0.14636392700E+03  0.00000000000E+00 0. -1.
         -6    2    1    2    0  503  0.15400359584E+03 -0.32882933022E+00  0.76040072590E+02  0.24457024219E+03  0.17411288024E+03 0.  0.
        -24    2    3    3    0    0  0.17769143534E+03 -0.17380585029E+02  0.42878886511E+02  0.20014468226E+03  0.79642727234E+02 0.  0.
          6    2    1    2  501    0 -0.15400359584E+03  0.32882933022E+00  0.15338064062E+03  0.27757832503E+03  0.17264672006E+03 0.  0.
         24    2    5    5    0    0 -0.16656191894E+03  0.22622655888E+02  0.84685555381E+02  0.20412200523E+03  0.78990457191E+02 0.  0.
          5    1    5    5  501    0  0.12558323104E+02 -0.22293826558E+02  0.68695085241E+02  0.73456319796E+02  0.47000000000E+01 0. -1.
        -13    1    6    6    0    0 -0.93568960778E+01  0.22928079728E+02 -0.15596559270E+01  0.24812917419E+02  0.00000000000E+00 0.  1.
         14    1    6    6    0    0 -0.15720502287E+03 -0.30542384058E+00  0.86245211308E+02  0.17930908781E+03  0.00000000000E+00 0. -1.
         -5    1    3    3    0  503 -0.23687839501E+02  0.17051755699E+02  0.33161186079E+02  0.44425559926E+02  0.47000000000E+01 0.  1.
         13    1    4    4    0    0  0.98436993742E+02 -0.36301859589E+01  0.63382837733E+02  0.11713412870E+03  0.00000000000E+00 0. -1.
        -14    1    4    4    0    0  0.79254441597E+02 -0.13750399070E+02 -0.20503951221E+02  0.83010553565E+02  0.00000000000E+00 0.  1.
</event>
<event>
12    1  0.8297444E-002  0.2281644E+03  0.7818608E-02  0.1128040E+00
         21   -1    0    0  503  502  0.00000000000E+00  0.00000000000E+00  0.16450906207E+04  0.16450906207E+04  0.00000000000E+00 0.  1.
         21   -1    0    0  501  503 -0.00000000000E+00 -0.00000000000E+00 -0.49256594772E+02  0.49256594772E+02  0.00000000000E+00 0.  1.
          6    2    1    2  501    0 -0.14888374651E+03  0.19334303292E+01  0.28957380853E+03  0.36830997402E+03  0.17213116582E+03 0.  0.
         24    2    3    3    0    0 -0.30351881792E+02  0.44671836798E+02  0.94908099564E+02  0.13637635724E+03  0.81695493886E+02 0.  0.
         -6    2    1    2    0  502  0.14888374651E+03 -0.19334303292E+01  0.13062602174E+04  0.13260372414E+04  0.17288407110E+03 0.  0.
        -24    2    5    5    0    0  0.16300335056E+02  0.30616720027E+02  0.41585552822E+03  0.42521513149E+03  0.81663965332E+02 0.  0.
          5    1    3    3  501    0 -0.11853186472E+03 -0.42738406469E+02  0.19466570897E+03  0.23193361677E+03  0.47000000000E+01 0. -1.
        -13    1    4    4    0    0 -0.45476861596E+02  0.13893538398E+02  0.15722472545E+02  0.50083644963E+02  0.00000000000E+00 0.  1.
         14    1    4    4    0    0  0.15124979804E+02  0.30778298400E+02  0.79185627019E+02  0.86292712281E+02  0.00000000000E+00 0. -1.
         -5    1    5    5    0  502  0.13258341146E+03 -0.32550150356E+02  0.89040468917E+03  0.90082210995E+03  0.47000000000E+01 0.  1.
         13    1    6    6    0    0  0.54220676244E+01 -0.13563973471E+01  0.35929630570E+03  0.35933977504E+03  0.00000000000E+00 0. -1.
        -14    1    6    6    0    0  0.10878267432E+02  0.31973117374E+02  0.56559222513E+02  0.65875356456E+02  0.00000000000E+00 0.  1.
</event>
<event>
12    1  0.8297444E-002  0.1761432E+03  0.7818608E-02  0.1173424E+00
         21   -1    0    0  503  502  0.00000000000E+00  0.00000000000E+00  0.15688428763E+04  0.15688428763E+04  0.00000000000E+00 0. -1.
         21   -1    0    0  501  503 -0.00000000000E+00 -0.00000000000E+00 -0.26228017377E+02  0.26228017377E+02  0.00000000000E+00 0. -1.
          6    2    1    2  501    0  0.41378586818E+01  0.35380428117E+02  0.34031957260E+03  0.37994111432E+03  0.16513310476E+03 0.  0.
         24    2    3    3    0    0  0.31281052951E+02  0.40842556547E+02  0.10185719012E+03  0.13983075281E+03  0.80815428944E+02 0.  0.
         -6    2    1    2    0  502 -0.41378586818E+01 -0.35380428117E+02  0.12022952863E+04  0.12151297793E+04  0.17250370604E+03 0.  0.
        -24    2    5    5    0    0  0.48215963050E+02 -0.40063102112E+02  0.10443673846E+04  0.10486180314E+04  0.70474891872E+02 0.  0.
          5    1    3    3  501    0 -0.27143194269E+02 -0.54621284308E+01  0.23846238249E+03  0.24011036151E+03  0.47000000000E+01 0. -1.
        -13    1    4    4    0    0  0.37061917881E+02  0.18014474996E+02  0.10791518844E+03  0.11551534514E+03  0.00000000000E+00 0.  1.
         14    1    4    4    0    0 -0.57808649301E+01  0.22828081551E+02 -0.60579983266E+01  0.24315407674E+02  0.00000000000E+00 0. -1.
         -5    1    5    5    0  502 -0.52353821732E+02  0.46826739953E+01  0.15792790168E+03  0.16651174798E+03  0.47000000000E+01 0.  1.
         13    1    6    6    0    0  0.98032326634E+01 -0.27524804529E+02  0.82766505537E+03  0.82818063375E+03  0.00000000000E+00 0. -1.
        -14    1    6    6    0    0  0.38412730386E+02 -0.12538297583E+02  0.21670232927E+03  0.22043739762E+03  0.00000000000E+00 0.  1.
</event>
<event>
12    1  0.8297444E-002  0.2049844E+03  0.7818608E-02  0.1145963E+00
         21   -1    0    0  501  502  0.00000000000E+00  0.00000000000E+00  0.24693902844E+03  0.24693902844E+03  0.00000000000E+00 0.  1.
         21   -1    0    0  502  503 -0.00000000000E+00 -0.00000000000E+00 -0.31966472033E+03  0.31966472033E+03  0.00000000000E+00 0.  1.
         -6    2    1    2    0  503  0.31797678246E+02 -0.10254961668E+03 -0.23097061876E+03  0.30764415187E+03  0.17253979606E+03 0.  0.
        -24    2    3    3    0    0  0.61069324922E+02 -0.50140845975E+02 -0.60986700271E+02  0.12731076313E+03  0.79025856011E+02 0.  0.
          6    2    1    2  501    0 -0.31797678246E+02  0.10254961668E+03  0.15824492687E+03  0.25895959690E+03  0.17461700868E+03 0.  0.
         24    2    5    5    0    0 -0.86310143345E+01  0.84220130890E+02  0.21819523571E+02  0.11929340545E+03  0.81162184054E+02 0.  0.
          5    1    5    5  501    0 -0.23166663911E+02  0.18329485794E+02  0.13642540330E+03  0.13966619144E+03  0.47000000000E+01 0. -1.
        -13    1    6    6    0    0  0.31333739406E+02  0.43221735878E+02  0.30347378932E+02  0.61407532807E+02  0.00000000000E+00 0.  1.
         14    1    6    6    0    0 -0.39964753740E+02  0.40998395012E+02 -0.85278553607E+01  0.57885872647E+02  0.00000000000E+00 0. -1.
         -5    1    3    3    0  503 -0.29271646676E+02 -0.52408770708E+02 -0.16998391849E+03  0.18033338873E+03  0.47000000000E+01 0.  1.
         11    1    4    4    0    0  0.56590567188E+02 -0.67712098501E+01 -0.61309889111E+02  0.83709283119E+02  0.00000000000E+00 0. -1.
        -12    1    4    4    0    0  0.44787577339E+01 -0.43369636125E+02  0.32318884018E+00  0.43601480015E+02  0.00000000000E+00 0.  1.
</event>
<event>
12    1  0.8297444E-002  0.1882370E+03  0.7818608E-02  0.1160116E+00
         21   -1    0    0  503  502  0.00000000000E+00  0.00000000000E+00  0.10725549357E+04  0.10725549357E+04  0.00000000000E+00 0. -1.
         21   -1    0    0  501  503 -0.00000000000E+00 -0.00000000000E+00 -0.44629308270E+02  0.44629308270E+02  0.00000000000E+00 0. -1.
          6    2    1    2  501    0  0.73892829335E+02  0.15368682945E+02  0.79893540545E+03  0.82075600777E+03  0.17218099653E+03 0.  0.
         24    2    3    3    0    0 -0.30848665502E+01 -0.43311003551E+02  0.26698240581E+03  0.28004817993E+03  0.72539772782E+02 0.  0.
         -6    2    1    2    0  502 -0.73892829335E+02 -0.15368682945E+02  0.22899022202E+03  0.29642823624E+03  0.17244370333E+03 0.  0.
        -24    2    5    5    0    0 -0.25615030925E+02  0.15980349956E+02  0.22237110407E+03  0.23829553971E+03  0.80152073755E+02 0.  0.
          5    1    3    3  501    0  0.76977695885E+02  0.58679686496E+02  0.53195299963E+03  0.54070782784E+03  0.47000000000E+01 0. -1.
        -13    1    4    4    0    0  0.19841159126E+02 -0.53648161624E+02  0.21211178051E+03  0.21968888063E+03  0.00000000000E+00 0.  1.
         14    1    4    4    0    0 -0.22926025676E+02  0.10337158073E+02  0.54870625307E+02  0.60359299299E+02  0.00000000000E+00 0. -1.
         -5    1    5    5    0  502 -0.48277798410E+02 -0.31349032902E+02  0.66191179503E+01  0.58132696528E+02  0.47000000000E+01 0.  1.
         11    1    6    6    0    0 -0.23822301640E+02  0.33172691654E+02  0.47801346549E+02  0.62872078532E+02  0.00000000000E+00 0. -1.
        -12    1    6    6    0    0 -0.17927292844E+01 -0.17192341698E+02  0.17456975752E+03  0.17542346118E+03  0.00000000000E+00 0.  1.
</event>
<event>
12    1  0.8297444E-002  0.2079651E+03  0.7818608E-02  0.1143278E+00
         21   -1    0    0  501  502  0.00000000000E+00  0.00000000000E+00  0.40675742893E+03  0.40675742893E+03  0.00000000000E+00 0.  1.
         21   -1    0    0  502  503 -0.00000000000E+00 -0.00000000000E+00 -0.11600664557E+03  0.11600664557E+03  0.00000000000E+00 0. -1.
         -6    2    1    2    0  503 -0.67062850626E+02  0.94643845151E+02  0.68835123121E+02  0.21863243817E+03  0.17206680530E+03 0.  0.
        -24    2    3    3    0    0 -0.11627579763E+02  0.12568859512E+01 -0.15163214174E+02  0.81257025259E+02  0.78968352626E+02 0.  0.
          6    2    1    2  501    0  0.67062850626E+02 -0.94643845151E+02  0.22191566023E+03  0.30413163633E+03  0.17261114854E+03 0.  0.
         24    2    5    5    0    0  0.10043480397E+03 -0.10850378424E+03  0.15946773363E+03  0.23182936307E+03  0.80340988724E+02 0.  0.
          5    1    5    5  501    0 -0.33371953341E+02  0.13859939089E+02  0.62447926602E+02  0.72302273258E+02  0.47000000000E+01 0. -1.
        -11    1    6    6    0    0  0.10206942980E+03 -0.57447099181E+02  0.10811870846E+03  0.15939884825E+03  0.00000000000E+00 0.  1.
         12    1    6    6    0    0 -0.16346258348E+01 -0.51056685060E+02  0.51349025174E+02  0.72430514821E+02  0.00000000000E+00 0. -1.
         -5    1    3    3    0  503 -0.55435270862E+02  0.93386959200E+02  0.83998337295E+02  0.13737541291E+03  0.47000000000E+01 0.  1.
         11    1    4    4    0    0  0.63742128160E+00  0.38433040422E+02 -0.17081712863E+02  0.42062926863E+02  0.00000000000E+00 0. -1.
        -12    1    4    4    0    0 -0.12265001045E+02 -0.37176154471E+02  0.19184986884E+01  0.39194098396E+02  0.00000000000E+00 0.  1.
</event>
<event>
12    1  0.8297444E-002  0.1975800E+03  0.7818608E-02  0.1151804E+00
         21   -1    0    0  501  502  0.00000000000E+00  0.00000000000E+00  0.62576897902E+02  0.62576897902E+02  0.00000000000E+00 0. -1.
         21   -1    0    0  502  503 -0.00000000000E+00 -0.00000000000E+00 -0.74826571255E+03  0.74826571255E+03  0.00000000000E+00 0. -1.
         -6    2    1    2    0  503  0.52573633628E+02 -0.81753947234E+02 -0.50825557625E+03  0.54530869670E+03  0.17201787426E+03 0.  0.
        -24    2    3    3    0    0  0.80000540635E+01 -0.10887758144E+03 -0.27230745023E+03  0.30361446073E+03  0.78179694979E+02 0.  0.
          6    2    1    2  501    0 -0.52573633628E+02  0.81753947234E+02 -0.17743323840E+03  0.26553391375E+03  0.17198258756E+03 0.  0.
         24    2    5    5    0    0 -0.44646091755E+02  0.95860822577E+02 -0.57295088885E+02  0.14421979743E+03  0.79586757348E+02 0.  0.
          5    1    5    5  501    0 -0.79275418727E+01 -0.14106875343E+02 -0.12013814951E+03  0.12131411633E+03  0.47000000000E+01 0. -1.
        -11    1    6    6    0    0  0.17208031999E+02  0.51057724863E+02 -0.36449105015E+02  0.65050325824E+02  0.00000000000E+00 0.  1.
         12    1    6    6    0    0 -0.61854123754E+02  0.44803097714E+02 -0.20845983870E+02  0.79169471602E+02  0.00000000000E+00 0. -1.
         -5    1    3    3    0  503  0.44573579564E+02  0.27123634210E+02 -0.23594812602E+03  0.24169423597E+03  0.47000000000E+01 0.  1.
         11    1    4    4    0    0  0.21410591994E+02 -0.53472249909E+02 -0.57561179253E+02  0.81430856049E+02  0.00000000000E+00 0. -1.
        -12    1    4    4    0    0 -0.13410537931E+02 -0.55405331535E+02 -0.21474627098E+03  0.22218360468E+03  0.00000000000E+00 0.  1.
</event>
<event>
12    1  0.8297444E-002  0.2441183E+03  0.7818608E-02  0.1117140E+00
         21   -1    0    0  501  502  0.00000000000E+00  0.00000000000E+00  0.11339966332E+04  0.11339966332E+04  0.00000000000E+00 0.  1.
         21   -1    0    0  502  503 -0.00000000000E+00 -0.00000000000E+00 -0.67541165351E+02  0.67541165351E+02  0.00000000000E+00 0.  1.
         -6    2    1    2    0  503  0.26682496869E+02 -0.17073926411E+03  0.24977473721E+03  0.34925804568E+03  0.17242363868E+03 0.  0.
        -24    2    3    3    0    0  0.50341819167E+00 -0.85535985150E+02  0.22948547607E+03  0.25772287744E+03  0.80254841897E+02 0.  0.
          6    2    1    2  501    0 -0.26682496869E+02  0.17073926411E+03  0.81668073062E+03  0.85227975285E+03  0.17189970739E+03 0.  0.
         24    2    5    5    0    0 -0.35782197053E+02  0.17115990269E+02  0.31951449169E+03  0.33181911655E+03  0.80256420031E+02 0.  0.
          5    1    5    5  501    0  0.90997001839E+01  0.15362327385E+03  0.49716623893E+03  0.52046063630E+03  0.47000000000E+01 0. -1.
        -11    1    6    6    0    0  0.15737048974E+01 -0.43452812894E+01  0.24996187664E+03  0.25000459554E+03  0.00000000000E+00 0.  1.
         12    1    6    6    0    0 -0.37355901950E+02  0.21461271558E+02  0.69552615050E+02  0.81814521007E+02  0.00000000000E+00 0. -1.
         -5    1    3    3    0  503  0.26179078678E+02 -0.85203278964E+02  0.20289261145E+02  0.91535168238E+02  0.47000000000E+01 0.  1.
         13    1    4    4    0    0  0.36631845657E+02 -0.19791178872E+02  0.95136195578E+02  0.10384834417E+03  0.00000000000E+00 0. -1.
        -14    1    4    4    0    0 -0.36128427465E+02 -0.65744806278E+02  0.13434928049E+03  0.15387453328E+03  0.00000000000E+00 0.  1.
</event>
<event>
12    1  0.8297444E-002  0.2459010E+03  0.7818608E-02  0.1115966E+00
         21   -1    0    0  503  502  0.00000000000E+00  0.00000000000E+00  0.24090684078E+03  0.24090684078E+03  0.00000000000E+00 0. -1.
         21   -1    0    0  501  503 -0.00000000000E+00 -0.00000000000E+00 -0.29331121569E+03  0.29331121569E+03  0.00000000000E+00 0.  1.
          6    2    1    2  501    0 -0.81155104426E+02 -0.15572836581E+03 -0.12798892177E+03  0.27721560128E+03  0.17213323504E+03 0.  0.
         24    2    3    3    0    0 -0.11061802775E+03 -0.73545343474E+02 -0.10388031011E+03  0.18652145502E+03  0.79711158212E+02 0.  0.
         -6    2    1    2    0  502  0.81155104426E+02  0.15572836581E+03  0.75584546861E+02  0.25700245519E+03  0.17175495148E+03 0.  0.
        -24    2    5    5    0    0 -0.98946107755E+01  0.12522573927E+03  0.39817842587E+02  0.15442659059E+03  0.80515353783E+02 0.  0.
          5    1    3    3  501    0  0.29462923320E+02 -0.82183022336E+02 -0.24108611656E+02  0.90694146265E+02  0.47000000000E+01 0. -1.
        -11    1    4    4    0    0 -0.39440921692E+02 -0.13837020398E+01 -0.68705122041E+02  0.79233166855E+02  0.00000000000E+00 0.  1.
         12    1    4    4    0    0 -0.71177106055E+02 -0.72161641435E+02 -0.35175188070E+02  0.10728828816E+03  0.00000000000E+00 0. -1.
         -5    1    5    5    0  502  0.91049715202E+02  0.30502626542E+02  0.35766704274E+02  0.10257586460E+03  0.47000000000E+01 0.  1.
         11    1    6    6    0    0 -0.20873699037E+02  0.57163974007E+02  0.56994455928E+02  0.83377450442E+02  0.00000000000E+00 0. -1.
        -12    1    6    6    0    0  0.10979088261E+02  0.68061765262E+02 -0.17176613342E+02  0.71049140146E+02  0.00000000000E+00 0.  1.
</event>
<event>
12    1  0.8297444E-002  0.2354988E+03  0.7818608E-02  0.1122983E+00
         21   -1    0    0  503  502  0.00000000000E+00  0.00000000000E+00  0.33727399385E+03  0.33727399385E+03  0.00000000000E+00 0. -1.
         21   -1    0    0  501  503 -0.00000000000E+00 -0.00000000000E+00 -0.16463495685E+03  0.16463495685E+03  0.00000000000E+00 0. -1.
          6    2    1    2  501    0  0.85407400620E+02 -0.13572283822E+03  0.10432164633E+03  0.25757072773E+03  0.17246611551E+03 0.  0.
         24    2    3    3    0    0 -0.13981803930E+02 -0.20908419675E+02  0.36197737670E+02  0.91066909107E+02  0.79688473868E+02 0.  0.
         -6    2    1    2    0  502 -0.85407400620E+02  0.13572283822E+03  0.68317390664E+02  0.24433822296E+03  0.17122730051E+03 0.  0.
        -24    2    5    5    0    0 -0.81992120813E+02  0.93530336964E+02  0.11020048801E+03  0.18460418626E+03  0.80398546120E+02 0.  0.
          5    1    3    3  501    0  0.99389204550E+02 -0.11481441854E+03  0.68123908662E+02  0.16650381863E+03  0.47000000000E+01 0. -1.
        -13    1    4    4    0    0  0.11441200297E+02 -0.28558023975E+02  0.51818884028E+02  0.60263243685E+02  0.00000000000E+00 0.  1.
         14    1    4    4    0    0 -0.25423004227E+02  0.76496043000E+01 -0.15621146358E+02  0.30803665422E+02  0.00000000000E+00 0. -1.
         -5    1    5    5    0  502 -0.34152798068E+01  0.42192501253E+02 -0.41883097343E+02  0.59734036705E+02  0.47000000000E+01 0.  1.
         13    1    6    6    0    0 -0.49076924551E+02  0.10174517497E+03  0.74284215046E+02  0.13519900058E+03  0.00000000000E+00 0. -1.
        -14    1    6    6    0    0 -0.32915196262E+02 -0.82148380035E+01  0.35916272960E+02  0.49405185677E+02  0.00000000000E+00 0.  1.
</event>
<event>
12    1  0.8297444E-002  0.2057085E+03  0.7818608E-02  0.1145055E+00
         21   -1    0    0  501  502  0.00000000000E+00  0.00000000000E+00  0.10361078884E+04  0.10361078884E+04  0.00000000000E+00 0.  1.
         21   -1    0    0  502  503 -0.00000000000E+00 -0.00000000000E+00 -0.66433082756E+02  0.66433082756E+02  0.00000000000E+00 0. -1.
         -6    2    1    2    0  503  0.83831048072E+02  0.75680459598E+02  0.82712378509E+03  0.85226759602E+03  0.17167155492E+03 0.  0.
        -24    2    3    3    0    0  0.41389994092E+01  0.19687938792E+02  0.18076941973E+03  0.19859945343E+03  0.79745931205E+02 0.  0.
          6    2    1    2  501    0 -0.83831048072E+02 -0.75680459598E+02  0.14255102052E+03  0.25027337511E+03  0.17193252238E+03 0.  0.
         24    2    5    5    0    0 -0.47078481216E+02 -0.11302354796E+03  0.13059189558E+03  0.19632554765E+03  0.80614959420E+02 0.  0.
          5    1    5    5  501    0 -0.36752566856E+02  0.37343088359E+02  0.11959124948E+02  0.53947827466E+02  0.47000000000E+01 0. -1.
        -13    1    6    6    0    0  0.11259448831E+02  0.33685329829E+01  0.28659050856E+02  0.30975206188E+02  0.00000000000E+00 0.  1.
         14    1    6    6    0    0 -0.58337930047E+02 -0.11639208094E+03  0.10193284472E+03  0.16535034146E+03  0.00000000000E+00 0. -1.
         -5    1    3    3    0  503  0.79692048663E+02  0.55992520806E+02  0.64635436536E+03  0.65366814259E+03  0.47000000000E+01 0.  1.
         13    1    4    4    0    0 -0.32803628669E+02 -0.97334299401E+01  0.89872940867E+02  0.96166330970E+02  0.00000000000E+00 0. -1.
        -14    1    4    4    0    0  0.36942628078E+02  0.29421368732E+02  0.90896478862E+02  0.10243312246E+03  0.00000000000E+00 0.  1.
</event>
<event>
12    1  0.8297444E-002  0.3844400E+03  0.7818608E-02  0.1049341E+00
         21   -1    0    0  501  502  0.00000000000E+00  0.00000000000E+00  0.64274509789E+03  0.64274509789E+03  0.00000000000E+00 0.  1.
         21   -1    0    0  502  503 -0.00000000000E+00 -0.00000000000E+00 -0.45173200002E+03  0.45173200002E+03  0.00000000000E+00 0. -1.
         -6    2    1    2    0  503 -0.19935675758E+03  0.28028852876E+03 -0.28812159841E+03  0.48042497518E+03  0.17172456190E+03 0.  0.
        -24    2    3    3    0    0 -0.20853750158E+03  0.27442319503E+03 -0.29977620695E+03  0.46379343585E+03  0.80265791861E+02 0.  0.
          6    2    1    2  501    0  0.19935675758E+03 -0.28028852876E+03  0.47913469628E+03  0.61405212273E+03  0.17083669425E+03 0.  0.
         24    2    5    5    0    0  0.17466617936E+03 -0.22921597449E+03  0.28938090688E+03  0.41594452307E+03  0.78868877455E+02 0.  0.
          5    1    5    5  501    0  0.24690578220E+02 -0.51072554270E+02  0.18975378940E+03  0.19810759966E+03  0.47000000000E+01 0. -1.
        -13    1    6    6    0    0  0.43295820774E+02 -0.11052423751E+03  0.14569062147E+03  0.18792523076E+03  0.00000000000E+00 0.  1.
         14    1    6    6    0    0  0.13137035858E+03 -0.11869173698E+03  0.14369028542E+03  0.22801929231E+03  0.00000000000E+00 0. -1.
         -5    1    3    3    0  503  0.91807440041E+01  0.58653337241E+01  0.11654608544E+02  0.16631539330E+02  0.47000000000E+01 0.  1.
         13    1    4    4    0    0 -0.50469099516E+02  0.60710269420E+02 -0.28350454151E+02  0.83884534151E+02  0.00000000000E+00 0. -1.
        -14    1    4    4    0    0 -0.15806840206E+03  0.21371292561E+03 -0.27142575280E+03  0.37990890170E+03  0.00000000000E+00 0.  1.
</event>
<event>
12    1  0.8297444E-002  0.2818539E+03  0.7818608E-02  0.1095221E+00
         21   -1    0    0  503  502  0.00000000000E+00  0.00000000000E+00  0.10678784309E+04  0.10678784309E+04  0.00000000000E+00 0.  1.
         21   -1    0    0  501  503 -0.00000000000E+00 -0.00000000000E+00 -0.79729712979E+02  0.79729712979E+02  0.00000000000E+00 0.  1.
          6    2    1    2  501    0  0.18024459291E+03 -0.13412910100E+03  0.33499138596E+03  0.43779087539E+03  0.17018487861E+03 0.  0.
         24    2    3    3    0    0  0.11468073741E+03 -0.12626925529E+03  0.14914182299E+03  0.24050289711E+03  0.80639715940E+02 0.  0.
         -6    2    1    2    0  502 -0.18024459291E+03  0.13412910100E+03  0.65315733194E+03  0.70981726846E+03  0.16354609542E+03 0.  0.
        -24    2    5    5    0    0 -0.14445155089E+03  0.49969582083E+02  0.52160442599E+03  0.54952932897E+03  0.80920309549E+02 0.  0.
          5    1    3    3  501    0  0.65563855490E+02 -0.78598457108E+01  0.18584956296E+03  0.19728797828E+03  0.47000000000E+01 0. -1.
        -13    1    4    4    0    0  0.13436820877E+02 -0.12171214984E+02  0.62493647335E+02  0.65070289585E+02  0.00000000000E+00 0.  1.
         14    1    4    4    0    0  0.10124391654E+03 -0.11409804031E+03  0.86648175655E+02  0.17543260752E+03  0.00000000000E+00 0. -1.
         -5    1    5    5    0  502 -0.35793042019E+02  0.84159518921E+02  0.13155290595E+03  0.16028793949E+03  0.47000000000E+01 0.  1.
         11    1    6    6    0    0 -0.80968488359E+02 -0.91195117243E+01  0.18924221363E+03  0.20603804751E+03  0.00000000000E+00 0. -1.
        -12    1    6    6    0    0 -0.63483062527E+02  0.59089093808E+02  0.33236221236E+03  0.34349128147E+03  0.00000000000E+00 0.  1.
</event>
<event>
12    1  0.8297444E-002  0.1985578E+03  0.7818608E-02  0.1151146E+00
         21   -1    0    0  501  502  0.00000000000E+00  0.00000000000E+00  0.26021286779E+03  0.26021286779E+03  0.00000000000E+00 0.  1.
         21   -1    0    0  502  503 -0.00000000000E+00 -0.00000000000E+00 -0.17847568185E+03  0.17847568185E+03  0.00000000000E+00 0.  1.
         -6    2    1    2    0  503 -0.87094824807E+02  0.37396322632E+02 -0.45346051034E+02  0.20366996559E+03  0.17447405849E+03 0.  0.
        -24    2    3    3    0    0 -0.34181296978E+02 -0.43281768375E+01  0.37545449815E+02  0.96740707687E+02  0.82231438903E+02 0.  0.
          6    2    1    2  501    0  0.87094824807E+02 -0.37396322632E+02  0.12708323697E+03  0.23501858405E+03  0.17349234068E+03 0.  0.
         24    2    5    5    0    0  0.10020349986E+03 -0.54379001247E+02  0.39369321900E+02  0.14459696257E+03  0.79752874026E+02 0.  0.
          5    1    5    5  501    0 -0.13108675056E+02  0.16982678615E+02  0.87713915073E+02  0.90421621486E+02  0.47000000000E+01 0. -1.
        -13    1    6    6    0    0  0.21552614073E+02 -0.16888801221E+02  0.49814602345E+02  0.56844009243E+02  0.00000000000E+00 0.  1.
         14    1    6    6    0    0  0.78650885790E+02 -0.37490200026E+02 -0.10445280445E+02  0.87752953325E+02  0.00000000000E+00 0. -1.
         -5    1    3    3    0  503 -0.52913527830E+02  0.41724499470E+02 -0.82891500849E+02  0.10692925791E+03  0.47000000000E+01 0.  1.
         11    1    4    4    0    0 -0.29812283380E+02 -0.36199521763E+02  0.43570161872E+02  0.64012003732E+02  0.00000000000E+00 0. -1.
        -12    1    4    4    0    0 -0.43690135977E+01  0.31871344926E+02 -0.60247120573E+01  0.32728703955E+02  0.00000000000E+00 0.  1.
</event>
<event>
12    1  0.8297444E-002  0.2051522E+03  0.7818608E-02  0.1145741E+00
         21   -1    0    0  501  502  0.00000000000E+00  0.00000000000E+00  0.46098553926E+02  0.46098553926E+02  0.00000000000E+00 0. -1.
         21   -1    0    0  502  503 -0.00000000000E+00 -0.00000000000E+00 -0.92968033690E+03  0.92968033690E+03  0.00000000000E+00 0.  1.
         -6    2    1    2    0  503 -0.10097826544E+03  0.42651450785E+02 -0.51947725932E+03  0.55851950682E+03  0.17341182255E+03 0.  0.
        -24    2    3    3    0    0 -0.89514637434E+02  0.84048914800E+02 -0.28165609852E+03  0.31680446939E+03  0.77186939299E+02 0.  0.
          6    2    1    2  501    0  0.10097826544E+03 -0.42651450785E+02 -0.36410452366E+03  0.41725938401E+03  0.17180667348E+03 0.  0.
         24    2    5    5    0    0  0.37077744983E+02  0.36744903263E+02 -0.21695329742E+03  0.23819897261E+03  0.83337087778E+02 0.  0.
          5    1    5    5  501    0  0.63900520455E+02 -0.79396354048E+02 -0.14715122623E+03  0.17906041141E+03  0.47000000000E+01 0. -1.
        -13    1    6    6    0    0  0.15831999839E+02  0.77733776418E+01 -0.19562456934E+03  0.19641804843E+03  0.00000000000E+00 0.  1.
         14    1    6    6    0    0  0.21245745143E+02  0.28971525621E+02 -0.21328728083E+02  0.41780924178E+02  0.00000000000E+00 0. -1.
         -5    1    3    3    0  503 -0.11463628004E+02 -0.41397464015E+02 -0.23782116080E+03  0.24171503742E+03  0.47000000000E+01 0.  1.
         13    1    4    4    0    0  0.75958482353E+01 -0.70942257845E+01 -0.34724190455E+02  0.36246301227E+02  0.00000000000E+00 0. -1.
        -14    1    4    4    0    0 -0.97110485670E+02  0.91143140584E+02 -0.24693190806E+03  0.28055816816E+03  0.00000000000E+00 0.  1.
</event>
<event>
12    1  0.8297444E-002  0.1978954E+03  0.7818608E-02  0.1151621E+00
         21   -1    0    0  501  502  0.00000000000E+00  0.00000000000E+00  0.57174834684E+03  0.57174834684E+03  0.00000000000E+00 0. -1.
         21   -1    0    0  502  503 -0.00000000000E+00 -0.00000000000E+00 -0.78448418513E+02  0.78448418513E+02  0.00000000000E+00 0. -1.
         -6    2    1    2    0  503 -0.85807711063E+02 -0.43327492938E+02  0.13021656518E+03  0.23689438556E+03  0.17298081148E+03 0.  0.
        -24    2    3    3    0    0  0.32573637722E+02 -0.29858506743E+02  0.41234094991E+02  0.88114254727E+02  0.64119412013E+02 0.  0.
          6    2    1    2  501    0  0.85807711063E+02  0.43327492938E+02  0.36308336315E+03  0.41330237980E+03  0.17247925565E+03 0.  0.
         24    2    5    5    0    0  0.43063378779E+02 -0.22386670383E+02  0.29502438453E+03  0.30938152638E+03  0.79510526337E+02 0.  0.
          5    1    5    5  501    0  0.42744332284E+02  0.65714163321E+02  0.68058978616E+02  0.10392085341E+03  0.47000000000E+01 0. -1.
        -13    1    6    6    0    0  0.62399189457E+00  0.74975766572E+01 -0.20571590064E+01  0.77996746594E+01  0.00000000000E+00 0.  1.
         14    1    6    6    0    0  0.42439386885E+02 -0.29884247040E+02  0.29708154354E+03  0.30158185173E+03  0.00000000000E+00 0. -1.
         -5    1    3    3    0  503 -0.11838134879E+03 -0.13468986195E+02  0.88982470193E+02  0.14878013083E+03  0.47000000000E+01 0.  1.
         11    1    4    4    0    0  0.33071739490E+02 -0.48496561371E+02  0.35536099543E+02  0.68618297767E+02  0.00000000000E+00 0. -1.
        -12    1    4    4    0    0 -0.49810176748E+00  0.18638054627E+02  0.56979954484E+01  0.19495956960E+02  0.00000000000E+00 0.  1.
</event>
<event>
12    1  0.8297444E-002  0.4206148E+03  0.7818608E-02  0.1036984E+00
         21   -1    0    0  503  502  0.00000000000E+00  0.00000000000E+00  0.14577121071E+04  0.14577121071E+04  0.00000000000E+00 0. -1.
         21   -1    0    0  501  503 -0.00000000000E+00 -0.00000000000E+00 -0.35607799773E+03  0.35607799773E+03  0.00000000000E+00 0. -1.
          6    2    1    2  501    0 -0.34932695584E+03 -0.15508755975E+03 -0.18581022432E+03  0.45982849474E+03  0.17559991984E+03 0.  0.
         24    2    3    3    0    0 -0.20720562267E+03 -0.14369157776E+03 -0.17236709596E+03  0.31654154681E+03  0.83106531048E+02 0.  0.
         -6    2    1    2    0  502  0.34932695584E+03  0.15508755975E+03  0.12874443337E+04  0.13539616101E+04  0.17209780928E+03 0.  0.
        -24    2    5    5    0    0  0.22041361355E+03  0.66945498842E+02  0.96419419486E+03  0.99493457075E+03  0.84619701071E+02 0.  0.
          5    1    3    3  501    0 -0.14212133317E+03 -0.11395981998E+02 -0.13443128362E+02  0.14328694793E+03  0.47000000000E+01 0. -1.
        -13    1    4    4    0    0 -0.55984699614E+02 -0.35501736096E+01 -0.17768844155E+02  0.58844049369E+02  0.00000000000E+00 0.  1.
         14    1    4    4    0    0 -0.15122092306E+03 -0.14014140415E+03 -0.15459825181E+03  0.25769749744E+03  0.00000000000E+00 0. -1.
         -5    1    5    5    0  502  0.12891334229E+03  0.88142060913E+02  0.32325013884E+03  0.35902703935E+03  0.47000000000E+01 0.  1.
         11    1    6    6    0    0  0.38010500797E+02  0.48844853120E+02  0.22569017204E+03  0.23402280146E+03  0.00000000000E+00 0. -1.
        -12    1    6    6    0    0  0.18240311276E+03  0.18100645722E+02  0.73850402282E+03  0.76091176929E+03  0.00000000000E+00 0.  1.
</event>
<event>
12    1  0.8297444E-002  0.3272690E+03  0.7818608E-02  0.1072396E+00
         21   -1    0    0  501  502  0.00000000000E+00  0.00000000000E+00  0.17178050937E+03  0.17178050937E+03  0.00000000000E+00 0.  1.
         21   -1    0    0  502  503 -0.00000000000E+00 -0.00000000000E+00 -0.10797549617E+04  0.10797549617E+04  0.00000000000E+00 0.  1.
         -6    2    1    2    0  503 -0.18807359377E+03 -0.20470771305E+03 -0.86125694000E+03  0.92134059499E+03  0.17270799293E+03 0.  0.
        -24    2    3    3    0    0 -0.13301324579E+03 -0.18111138456E+03 -0.80307745949E+03  0.83770226292E+03  0.79484704147E+02 0.  0.
          6    2    1    2  501    0  0.18807359377E+03  0.20470771305E+03 -0.46717512296E+02  0.33019487605E+03  0.17195698810E+03 0.  0.
         24    2    5    5    0    0  0.17449232966E+03  0.22184945770E+03 -0.67552393201E+02  0.29962573464E+03  0.74481541585E+02 0.  0.
          5    1    5    5  501    0  0.13581264112E+02 -0.17141744648E+02  0.20834880905E+02  0.30569141414E+02  0.47000000000E+01 0. -1.
        -11    1    6    6    0    0  0.11167460494E+02  0.20565892368E+02  0.14750145955E+02  0.27662879612E+02  0.00000000000E+00 0.  1.
         12    1    6    6    0    0  0.16332486917E+03  0.20128356533E+03 -0.82302539156E+02  0.27196285503E+03  0.00000000000E+00 0. -1.
         -5    1    3    3    0  503 -0.55060347987E+02 -0.23596328494E+02 -0.58179480514E+02  0.83638332072E+02  0.47000000000E+01 0.  1.
         11    1    4    4    0    0  0.85517613297E+01 -0.29654377534E+02 -0.93758946449E+02  0.98707926571E+02  0.00000000000E+00 0. -1.
        -12    1    4    4    0    0 -0.14156500712E+03 -0.15145700703E+03 -0.70931851304E+03  0.73899433635E+03  0.00000000000E+00 0.  1.
</event>
<event>
12    1  0.8297444E-002  0.2199462E+03  0.7818608E-02  0.1134213E+00
         21   -1    0    0  503  502  0.00000000000E+00  0.00000000000E+00  0.86742486867E+02  0.86742486867E+02  0.00000000000E+00 0. -1.
         21   -1    0    0  501  503 -0.00000000000E+00 -0.00000000000E+00 -0.61499306519E+03  0.61499306519E+03  0.00000000000E+00 0. -1.
          6    2    1    2  501    0  0.50014197427E+02 -0.12295743910E+03 -0.37566506462E+03  0.43531665702E+03  0.17537502483E+03 0.  0.
         24    2    3    3    0    0  0.90259150482E+02 -0.99479581948E+02 -0.20148334539E+03  0.25494973285E+03  0.79755415748E+02 0.  0.
         -6    2    1    2    0  502 -0.50014197427E+02  0.12295743910E+03 -0.15258551371E+03  0.26641889504E+03  0.17342645953E+03 0.  0.
        -24    2    5    5    0    0 -0.44726996020E+02  0.15072514156E+03 -0.81150581713E+02  0.18945111406E+03  0.67732822449E+02 0.  0.
          5    1    3    3  501    0 -0.40244953055E+02 -0.23477857154E+02 -0.17418171923E+03  0.18036692417E+03  0.47000000000E+01 0. -1.
        -11    1    4    4    0    0  0.19289228215E+01  0.11361392937E+02 -0.47160027165E+01  0.12451613323E+02  0.00000000000E+00 0.  1.
         12    1    4    4    0    0  0.88330227660E+02 -0.11084097489E+03 -0.19676734267E+03  0.24249811953E+03  0.00000000000E+00 0. -1.
         -5    1    5    5    0  502 -0.52872014069E+01 -0.27767702456E+02 -0.71434931999E+02  0.76967780975E+02  0.47000000000E+01 0.  1.
         13    1    6    6    0    0  0.80329425942E+01  0.51884072872E+02 -0.25026186810E+01  0.52561851991E+02  0.00000000000E+00 0. -1.
        -14    1    6    6    0    0 -0.52759938615E+02  0.98841068686E+02 -0.78647963032E+02  0.13688926207E+03  0.00000000000E+00 0.  1.
</event>
<event>
12    1  0.8297444E-002  0.1895232E+03  0.7818608E-02  0.1159085E+00
         21   -1    0    0  501  502  0.00000000000E+00  0.00000000000E+00  0.15118897619E+03  0.15118897619E+03  0.00000000000E+00 0. -1.
         21   -1    0    0  502  503 -0.00000000000E+00 -0.00000000000E+00 -0.23709297086E+03  0.23709297086E+03  0.00000000000E+00 0. -1.
         -6    2    1    2    0  503 -0.70555095076E+02 -0.29203705413E+02 -0.33443913039E+02  0.19245138857E+03  0.17345940099E+03 0.  0.
        -24    2    3    3    0    0 -0.40846934010E+02 -0.83692828735E+02 -0.42419433775E+02  0.12956824800E+03  0.79470503519E+02 0.  0.
          6    2    1    2  501    0  0.70555095076E+02  0.29203705413E+02 -0.52460081627E+02  0.19583055849E+03  0.17253019916E+03 0.  0.
         24    2    5    5    0    0  0.95933148877E+02 -0.26514590564E+02 -0.36223995522E+02  0.13231461865E+03  0.79301878229E+02 0.  0.
          5    1    5    5  501    0 -0.25378053801E+02  0.55718295978E+02 -0.16236086104E+02  0.63515939837E+02  0.47000000000E+01 0. -1.
        -11    1    6    6    0    0  0.46006945976E+02 -0.51915928587E+02 -0.87317406211E+01  0.69915277396E+02  0.00000000000E+00 0.  1.
         12    1    6    6    0    0  0.49926202901E+02  0.25401338022E+02 -0.27492254901E+02  0.62399341254E+02  0.00000000000E+00 0. -1.
         -5    1    3    3    0  503 -0.29708161066E+02  0.54489123322E+02  0.89755207360E+01  0.62883140561E+02  0.47000000000E+01 0.  1.
         13    1    4    4    0    0 -0.22747412086E+02 -0.73924901559E+02  0.53793551419E+01  0.77532401542E+02  0.00000000000E+00 0. -1.
        -14    1    4    4    0    0 -0.18099521924E+02 -0.97679271759E+01 -0.47798788916E+02  0.52035846462E+02  0.00000000000E+00 0.  1.
</event>
<event>
12    1  0.8297444E-002  0.2230530E+03  0.7818608E-02  0.1131891E+00
         21   -1    0    0  503  502  0.00000000000E+00  0.00000000000E+00  0.91841570127E+02  0.91841570127E+02  0.00000000000E+00 0. -1.
         21   -1    0    0  501  503 -0.00000000000E+00 -0.00000000000E+00 -0.58049377311E+03  0.58049377311E+03  0.00000000000E+00 0. -1.
          6    2    1    2  501    0  0.12109195552E+03 -0.73375288826E+02 -0.33428794731E+03  0.40107725561E+03  0.17049146181E+03 0.  0.
         24    2    3    3    0    0  0.49661081508E+02  0.26212098064E+02 -0.12314023222E+03  0.15689399456E+03  0.79365682989E+02 0.  0.
         -6    2    1    2    0  502 -0.12109195552E+03  0.73375288826E+02 -0.15436425567E+03  0.27125808762E+03  0.17235263842E+03 0.  0.
        -24    2    5    5    0    0 -0.88613191711E+02  0.10723550164E+03 -0.71350881257E+02  0.17578717875E+03  0.80364378922E+02 0.  0.
          5    1    3    3  501    0  0.71430874010E+02 -0.99587386890E+02 -0.21114771509E+03  0.24418326105E+03  0.47000000000E+01 0. -1.
        -11    1    4    4    0    0  0.99846213231E+01  0.13378881078E+02 -0.11266910450E+03  0.11389914060E+03  0.00000000000E+00 0.  1.
         12    1    4    4    0    0  0.39676460185E+02  0.12833216986E+02 -0.10471127724E+02  0.42994853957E+02  0.00000000000E+00 0. -1.
         -5    1    5    5    0  502 -0.32478763807E+02 -0.33860212811E+02 -0.83013374413E+02  0.95470908875E+02  0.47000000000E+01 0.  1.
         11    1    6    6    0    0 -0.48399279574E+02  0.26860207779E+01 -0.25236925405E+02  0.54649861618E+02  0.00000000000E+00 0. -1.
        -12    1    6    6    0    0 -0.40213912137E+02  0.10454948086E+03 -0.46113955852E+02  0.12113731713E+03  0.00000000000E+00 0.  1.
</event>
<event>
12    1  0.8297444E-002  0.2664143E+03  0.7818608E-02  0.1103528E+00
         21   -1    0    0  503  502  0.00000000000E+00  0.00000000000E+00  0.53884923255E+03  0.53884923255E+03  0.00000000000E+00 0.  1.
         21   -1    0    0  501  503 -0.00000000000E+00 -0.00000000000E+00 -0.14154714551E+03  0.14154714551E+03  0.00000000000E+00 0.  1.
          6    2    1    2  501    0  0.10733869386E+03  0.17206524328E+03  0.10586967597E+03  0.28554267698E+03  0.17087477562E+03 0.  0.
         24    2    3    3    0    0  0.59884663174E+02  0.19020214518E+03  0.81860214550E+02  0.22915671706E+03  0.77773243046E+02 0.  0.
         -6    2    1    2    0  502 -0.10733869386E+03 -0.17206524328E+03  0.29143241107E+03  0.39485370107E+03  0.17276733453E+03 0.  0.
        -24    2    5    5    0    0 -0.30013629262E+02 -0.16655852080E+03  0.22350190672E+03  0.29167360111E+03  0.80484958124E+02 0.  0.
          5    1    3    3  501    0  0.47454030685E+02 -0.18136901897E+02  0.24009461417E+02  0.56385959921E+02  0.47000000000E+01 0. -1.
        -11    1    4    4    0    0  0.32314826236E+02  0.23447175800E+02 -0.29870088882E+01  0.40036736502E+02  0.00000000000E+00 0.  1.
         12    1    4    4    0    0  0.27569836938E+02  0.16675496938E+03  0.84847223438E+02  0.18911998056E+03  0.00000000000E+00 0. -1.
         -5    1    5    5    0  502 -0.77325064596E+02 -0.55067224881E+01  0.67930504355E+02  0.10318009997E+03  0.47000000000E+01 0.  1.
         13    1    6    6    0    0 -0.10884534790E+02 -0.19751649002E+02 -0.12000896090E+01  0.22584086233E+02  0.00000000000E+00 0. -1.
        -14    1    6    6    0    0 -0.19129094472E+02 -0.14680687179E+03  0.22470199633E+03  0.26908951487E+03  0.00000000000E+00 0.  1.
</event>
<event>
12    1  0.8297444E-002  0.2392255E+03  0.7818608E-02  0.1120437E+00
         21   -1    0    0  503  502  0.00000000000E+00  0.00000000000E+00  0.97177610411E+03  0.97177610411E+03  0.00000000000E+00 0.  1.
         21   -1    0    0  501  503 -0.00000000000E+00 -0.00000000000E+00 -0.58871838513E+02  0.58871838513E+02  0.00000000000E+00 0.  1.
          6    2    1    2  501    0  0.68153916486E+02 -0.15081945366E+03  0.42827495862E+03  0.49019036272E+03  0.17168484965E+03 0.  0.
         24    2    3    3    0    0 -0.29969684306E+02 -0.61211283994E+02  0.17460752096E+03  0.20378658477E+03  0.79976136998E+02 0.  0.
         -6    2    1    2    0  502 -0.68153916486E+02  0.15081945366E+03  0.48462930698E+03  0.54045757989E+03  0.17273496042E+03 0.  0.
        -24    2    5    5    0    0 -0.78158937614E+02  0.43237417377E+02  0.17161648365E+03  0.20928826890E+03  0.79818971730E+02 0.  0.
          5    1    3    3  501    0  0.98123600792E+02 -0.89608169661E+02  0.25366743766E+03  0.28640377796E+03  0.47000000000E+01 0. -1.
        -13    1    4    4    0    0 -0.46937433974E+02 -0.20815450579E+02  0.13606982420E+03  0.14543521839E+03  0.00000000000E+00 0.  1.
         14    1    4    4    0    0  0.16967749668E+02 -0.40395833416E+02  0.38537696759E+02  0.58351366374E+02  0.00000000000E+00 0. -1.
         -5    1    5    5    0  502  0.10005021128E+02  0.10758203628E+03  0.31301282333E+03  0.33116931100E+03  0.47000000000E+01 0.  1.
         11    1    6    6    0    0  0.26701228814E+01  0.43746051653E+01  0.83164823389E+02  0.83322593430E+02  0.00000000000E+00 0. -1.
        -12    1    6    6    0    0 -0.80829060495E+02  0.38862812212E+02  0.88451660260E+02  0.12596567547E+03  0.00000000000E+00 0.  1.
</event>
<event>
12    1  0.8297444E-002  0.1896259E+03  0.7818608E-02  0.1162400E+00
         21   -1    0    0  501  502  0.00000000000E+00  0.00000000000E+00  0.30061505986E+03  0.30061505986E+03  0.00000000000E+00 0.  1.
         21   -1    0    0  502  503 -0.00000000000E+00 -0.00000000000E+00 -0.12351029021E+03  0.12351029021E+03  0.00000000000E+00 0.  1.
         -6    2    1    2    0  503 -0.92547041877E+01 -0.28855048389E+02  0.15684151513E+02  0.17509806073E+03  0.17174130225E+03 0.  0.
        -24    2    3    3    0    0  0.21456582283E+02 -0.97995408697E+01 -0.52484056018E+02  0.97798060725E+02  0.79078875946E+02 0.  0.
          6    2    1    2  501    0  0.92547041877E+01  0.28855048389E+02  0.16142061814E+03  0.24902728934E+03  0.18718897272E+03 0.  0.
         24    2    5    5    0    0 -0.10636010947E+02 -0.42875310755E+02  0.14654237351E+03  0.17297245955E+03  0.80581558217E+02 0.  0.
          5    1    5    5  501    0  0.19890715135E+02  0.71730359144E+02  0.14878244627E+02  0.76054829792E+02  0.47000000000E+01 0. -1.
        -13    1    6    6    0    0  0.47958430827E+01 -0.44125071708E+02  0.25999216360E+02  0.51439102980E+02  0.00000000000E+00 0.  1.
         14    1    6    6    0    0 -0.15431854030E+02  0.12497609522E+01  0.12054315715E+03  0.12153335656E+03  0.00000000000E+00 0. -1.
         -5    1    3    3    0  503 -0.30711286471E+02 -0.19055507519E+02  0.68168207531E+02  0.77300000010E+02  0.47000000000E+01 0.  1.
         11    1    4    4    0    0 -0.26795595653E+02 -0.19272689667E+02 -0.25483770550E+02  0.41699677155E+02  0.00000000000E+00 0. -1.
        -12    1    4    4    0    0  0.48252177936E+02  0.94731487969E+01 -0.27000285468E+02  0.56098383569E+02  0.00000000000E+00 0.  1.
</event>
<event>
12    1  0.8297444E-002  0.2061359E+03  0.7818608E-02  0.1144812E+00
         21   -1    0    0  503  502  0.00000000000E+00  0.00000000000E+00  0.19029386910E+03  0.19029386910E+03  0.00000000000E+00 0.  1.
         21   -1    0    0  501  503 -0.00000000000E+00 -0.00000000000E+00 -0.30574846995E+03  0.30574846995E+03  0.00000000000E+00 0. -1.
          6    2    1    2  501    0 -0.36282671566E+02  0.10706409908E+03 -0.18721794506E+03  0.27846468763E+03  0.17237421425E+03 0.  0.
         24    2    3    3    0    0 -0.31334310343E+02 -0.12778395972E+02 -0.87686188743E+02  0.12253082212E+03  0.78611756529E+02 0.  0.
         -6    2    1    2    0  502  0.36282671566E+02 -0.10706409908E+03  0.71763344204E+02  0.21757765142E+03  0.17149607360E+03 0.  0.
        -24    2    5    5    0    0  0.24883488464E+02 -0.43601515939E+02 -0.28960237862E+02  0.97891516809E+02  0.78890896152E+02 0.  0.
          5    1    3    3  501    0 -0.49483612229E+01  0.11984249505E+03 -0.99531756314E+02  0.15593386551E+03  0.47000000000E+01 0. -1.
        -11    1    4    4    0    0  0.52233770848E+01  0.26437054109E+02 -0.11331327485E+02  0.29233550601E+02  0.00000000000E+00 0.  1.
         12    1    4    4    0    0 -0.36557687428E+02 -0.39215450081E+02 -0.76354861258E+02  0.93297271518E+02  0.00000000000E+00 0. -1.
         -5    1    5    5    0  502  0.11399183102E+02 -0.63462583139E+02  0.10072358207E+03  0.11968613461E+03  0.47000000000E+01 0.  1.
         11    1    6    6    0    0 -0.11516413399E+02  0.17748282110E+02 -0.71987556785E+00  0.21169494946E+02  0.00000000000E+00 0. -1.
        -12    1    6    6    0    0  0.36399901863E+02 -0.61349798049E+02 -0.28240362294E+02  0.76722021863E+02  0.00000000000E+00 0.  1.
</event>
<event>
12    1  0.8297444E-002  0.2371809E+03  0.7818608E-02  0.1122348E+00
         21   -1    0    0  503  502  0.00000000000E+00  0.00000000000E+00  0.19146398139E+03  0.19146398139E+03  0.00000000000E+00 0.  1.
         21   -1    0    0  501  503 -0.00000000000E+00 -0.00000000000E+00 -0.35500304251E+03  0.35500304251E+03  0.00000000000E+00 0. -1.
          6    2    1    2  501    0  0.15167949280E+03 -0.40501528497E+02  0.36572800068E+02  0.23614532963E+03  0.17256884034E+03 0.  0.
         24    2    3    3    0    0  0.16755819076E+03 -0.70617341042E+02  0.36034188990E+02  0.20177273421E+03  0.79694525196E+02 0.  0.
         -6    2    1    2    0  502 -0.15167949280E+03  0.40501528497E+02 -0.20011186118E+03  0.31032169427E+03  0.17778569853E+03 0.  0.
        -24    2    5    5    0    0 -0.11244113088E+03 -0.43484619536E+02 -0.12423826701E+03  0.19043752351E+03  0.79356054073E+02 0.  0.
          5    1    3    3  501    0 -0.15878697966E+02  0.30115812544E+02  0.53861107822E+00  0.34372595424E+02  0.47000000000E+01 0. -1.
        -13    1    4    4    0    0  0.95470694670E+02 -0.76505896612E+02  0.33129327406E+01  0.12238783142E+03  0.00000000000E+00 0.  1.
         14    1    4    4    0    0  0.72087496091E+02  0.58885555701E+01  0.32721256249E+02  0.79384902784E+02  0.00000000000E+00 0. -1.
         -5    1    5    5    0  502 -0.39238361912E+02  0.83986148033E+02 -0.75873594168E+02  0.11988417076E+03  0.47000000000E+01 0.  1.
         13    1    6    6    0    0 -0.17962929566E+02  0.69389222542E+01 -0.65547611667E+02  0.68317676159E+02  0.00000000000E+00 0. -1.
        -14    1    6    6    0    0 -0.94478201318E+02 -0.50423541790E+02 -0.58690655348E+02  0.12211984735E+03  0.00000000000E+00 0.  1.
</event>
<event>
12    1  0.8297444E-002  0.2149014E+03  0.7818608E-02  0.1139286E+00
         21   -1    0    0  503  502  0.00000000000E+00  0.00000000000E+00  0.16104557577E+03  0.16104557577E+03  0.00000000000E+00 0.  1.
         21   -1    0    0  501  503 -0.00000000000E+00 -0.00000000000E+00 -0.28340285233E+03  0.28340285233E+03  0.00000000000E+00 0.  1.
          6    2    1    2  501    0  0.77253486404E+01  0.11935717594E+03 -0.25033209172E+02  0.20853614259E+03  0.16898178821E+03 0.  0.
         24    2    3    3    0    0  0.52483578685E+02  0.12410001566E+03 -0.97614647119E+01  0.16077517668E+03  0.87166687022E+02 0.  0.
         -6    2    1    2    0  502 -0.77253486404E+01 -0.11935717594E+03 -0.97324067383E+02  0.23591228551E+03  0.17854079619E+03 0.  0.
        -24    2    5    5    0    0  0.13305895661E+02  0.12209047825E+02 -0.29016244618E+02  0.86112308463E+02  0.79039733736E+02 0.  0.
          5    1    3    3  501    0 -0.44758230045E+02 -0.47428397248E+01 -0.15271744460E+02  0.47760965906E+02  0.47000000000E+01 0. -1.
        -13    1    4    4    0    0 -0.47101439746E+01  0.17780511119E+02 -0.33049018798E+02  0.37822872385E+02  0.00000000000E+00 0.  1.
         14    1    4    4    0    0  0.57193722660E+02  0.10631950454E+03  0.23287554086E+02  0.12295230430E+03  0.00000000000E+00 0. -1.
         -5    1    5    5    0  502 -0.21031244301E+02 -0.13156622376E+03 -0.68307822765E+02  0.14979997704E+03  0.47000000000E+01 0.  1.
         11    1    6    6    0    0  0.11309982118E+02  0.24969364771E+02 -0.52548765561E+02  0.59268521447E+02  0.00000000000E+00 0. -1.
        -12    1    6    6    0    0  0.19959135430E+01 -0.12760316946E+02  0.23532520943E+02  0.26843787016E+02  0.00000000000E+00 0.  1.
</event>
<event>
12    1  0.8297444E-002  0.2332372E+03  0.7818608E-02  0.1124438E+00
         21   -1    0    0  501  502  0.00000000000E+00  0.00000000000E+00  0.24199198338E+03  0.24199198338E+03  0.00000000000E+00 0. -1.
         21   -1    0    0  502  503 -0.00000000000E+00 -0.00000000000E+00 -0.23486843330E+03  0.23486843330E+03  0.00000000000E+00 0. -1.
         -6    2    1    2    0  503  0.24718945412E+02  0.15440550918E+03 -0.46567507849E+02  0.23752315392E+03  0.17261699897E+03 0.  0.
        -24    2    3    3    0    0 -0.20352224386E+02  0.13262851799E+03  0.17266486163E+02  0.15626728346E+03  0.78209945112E+02 0.  0.
          6    2    1    2  501    0 -0.24718945412E+02 -0.15440550918E+03  0.53691057936E+02  0.23933726276E+03  0.17305348340E+03 0.  0.
         24    2    5    5    0    0  0.36790532803E+02 -0.27970167597E+02  0.15438226338E+02  0.93547411823E+02  0.79855531098E+02 0.  0.
          5    1    5    5  501    0 -0.61509478215E+02 -0.12643534158E+03  0.38252831598E+02  0.14578985094E+03  0.47000000000E+01 0. -1.
        -13    1    6    6    0    0 -0.18348774807E+02  0.12844007788E+02 -0.27771202171E+01  0.22568971391E+02  0.00000000000E+00 0.  1.
         14    1    6    6    0    0  0.55139307610E+02 -0.40814175384E+02  0.18215346555E+02  0.70978440432E+02  0.00000000000E+00 0. -1.
         -5    1    3    3    0  503  0.45071169798E+02  0.21776991188E+02 -0.63833994011E+02  0.81255870456E+02  0.47000000000E+01 0.  1.
         11    1    4    4    0    0 -0.38825857238E+02  0.77296470443E+02 -0.17649229329E+02  0.88281860136E+02  0.00000000000E+00 0. -1.
        -12    1    4    4    0    0  0.18473632852E+02  0.55332047547E+02  0.34915715492E+02  0.67985423326E+02  0.00000000000E+00 0.  1.
</event>
<event>
12    1  0.8297444E-002  0.1848607E+03  0.7818608E-02  0.1163637E+00
         21   -1    0    0  501  502  0.00000000000E+00  0.00000000000E+00  0.59813214876E+03  0.59813214876E+03  0.00000000000E+00 0. -1.
         21   -1    0    0  502  503 -0.00000000000E+00 -0.00000000000E+00 -0.70000931344E+02  0.70000931344E+02  0.00000000000E+00 0. -1.
         -6    2    1    2    0  503 -0.63790013167E+02 -0.22135281159E+02  0.11867066252E+03  0.21967297409E+03  0.17208821271E+03 0.  0.
        -24    2    3    3    0    0 -0.22861209407E+02 -0.31908737573E+02  0.14409254576E+03  0.17028623928E+03  0.81816496611E+02 0.  0.
          6    2    1    2  501    0  0.63790013167E+02  0.22135281159E+02  0.40946055490E+03  0.44846010602E+03  0.16999818886E+03 0.  0.
         24    2    5    5    0    0 -0.21039920541E+02  0.13780163320E+02  0.11857336907E+03  0.14530441907E+03  0.80132135819E+02 0.  0.
          5    1    5    5  501    0  0.84829933708E+02  0.83551178394E+01  0.29088718583E+03  0.30315568695E+03  0.47000000000E+01 0. -1.
        -11    1    6    6    0    0 -0.33472725873E+02 -0.66349155700E+01  0.11640466888E+03  0.12130330753E+03  0.00000000000E+00 0.  1.
         12    1    6    6    0    0  0.12432805333E+02  0.20415078890E+02  0.21687001941E+01  0.24001111538E+02  0.00000000000E+00 0. -1.
         -5    1    3    3    0  503 -0.40928803760E+02  0.97734564143E+01 -0.25421883240E+02  0.49386734808E+02  0.47000000000E+01 0.  1.
         13    1    4    4    0    0 -0.33701943621E+02 -0.27884346623E+02  0.24499906254E+02  0.50135847424E+02  0.00000000000E+00 0. -1.
        -14    1    4    4    0    0  0.10840734214E+02 -0.40243909498E+01  0.11959263950E+03  0.12015039186E+03  0.00000000000E+00 0.  1.
</event>
<event>
12    1  0.8297444E-002  0.2413544E+03  0.7818608E-02  0.1119825E+00
         21   -1    0    0  503  502  0.00000000000E+00  0.00000000000E+00  0.77323138908E+03  0.77323138908E+03  0.00000000000E+00 0. -1.
         21   -1    0    0  501  503 -0.00000000000E+00 -0.00000000000E+00 -0.12400916697E+03  0.12400916697E+03  0.00000000000E+00 0.  1.
          6    2    1    2  501    0  0.14468473534E+03 -0.68676592552E+02  0.36377245176E+02  0.23858213378E+03  0.17305485717E+03 0.  0.
         24    2    3    3    0    0  0.12814534080E+03 -0.11105163639E+03  0.42584509142E+02  0.19243220380E+03  0.80392899716E+02 0.  0.
         -6    2    1    2    0  502 -0.14468473534E+03  0.68676592552E+02  0.61284497693E+03  0.65865842227E+03  0.18055969781E+03 0.  0.
        -24    2    5    5    0    0 -0.66669159565E+02  0.41702464794E+02  0.52903386517E+03  0.54092811145E+03  0.80885838385E+02 0.  0.
          5    1    3    3  501    0  0.16539394535E+02  0.42375043838E+02 -0.62072639663E+01  0.46149929987E+02  0.47000000000E+01 0. -1.
        -11    1    4    4    0    0  0.34012427802E+02  0.48127017322E+01  0.24202996849E+02  0.42021332671E+02  0.00000000000E+00 0.  1.
         12    1    4    4    0    0  0.94132913000E+02 -0.11586433812E+03  0.18381512293E+02  0.15041087113E+03  0.00000000000E+00 0. -1.
         -5    1    5    5    0  502 -0.78015575772E+02  0.26974127758E+02  0.83811111761E+02  0.11773031082E+03  0.47000000000E+01 0.  1.
         13    1    6    6    0    0  0.42096096721E+01 -0.79433320937E+01  0.21504090589E+03  0.21522873540E+03  0.00000000000E+00 0. -1.
        -14    1    6    6    0    0 -0.70878769237E+02  0.49645796888E+02  0.31399295928E+03  0.32569937604E+03  0.00000000000E+00 0.  1.
</event>
<event>
12    1  0.8297444E-002  0.2089846E+03  0.7818608E-02  0.1142385E+00
         21   -1    0    0  503  502  0.00000000000E+00  0.00000000000E+00  0.10513435562E+04  0.10513435562E+04  0.00000000000E+00 0. -1.
         21   -1    0    0  501  503 -0.00000000000E+00 -0.00000000000E+00 -0.56761406571E+02  0.56761406571E+02  0.00000000000E+00 0. -1.
          6    2    1    2  501    0  0.79845926848E+02  0.87392493852E+02  0.21022256674E+03  0.29638177740E+03  0.17215054572E+03 0.  0.
         24    2    3    3    0    0  0.62920089124E+02  0.12443571726E+03  0.19477456454E+03  0.25257064690E+03  0.80072562958E+02 0.  0.
         -6    2    1    2    0  502 -0.79845926848E+02 -0.87392493852E+02  0.78435958287E+03  0.81172318535E+03  0.17222588186E+03 0.  0.
        -24    2    5    5    0    0  0.47914423612E+01 -0.30365284012E+02  0.53596006018E+03  0.54313428051E+03  0.82441810809E+02 0.  0.
          5    1    3    3  501    0  0.16925837723E+02 -0.37043223413E+02  0.15448002201E+02  0.43811130498E+02  0.47000000000E+01 0. -1.
        -13    1    4    4    0    0  0.12057713007E+02  0.10120297788E+03  0.14784088435E+03  0.17956714137E+03  0.00000000000E+00 0.  1.
         14    1    4    4    0    0  0.50862376118E+02  0.23232739383E+02  0.46933680188E+02  0.73003505530E+02  0.00000000000E+00 0. -1.
         -5    1    5    5    0  502 -0.84637369209E+02 -0.57027209840E+02  0.24839952269E+03  0.26858890484E+03  0.47000000000E+01 0.  1.
         13    1    6    6    0    0 -0.20008880305E+02 -0.42843633274E+02  0.45691949191E+03  0.45935972210E+03  0.00000000000E+00 0. -1.
        -14    1    6    6    0    0  0.24800322667E+02  0.12478349263E+02  0.79040568268E+02  0.83774558411E+02  0.00000000000E+00 0.  1.
</event>
<event>
12    1  0.8297444E-002  0.2530681E+03  0.7818608E-02  0.1111659E+00
         21   -1    0    0  501  502  0.00000000000E+00  0.00000000000E+00  0.17275259529E+04  0.17275259529E+04  0.00000000000E+00 0. -1.
         21   -1    0    0  502  503 -0.00000000000E+00 -0.00000000000E+00 -0.58797841266E+02  0.58797841266E+02  0.00000000000E+00 0.  1.
         -6    2    1    2    0  503 -0.18207721156E+03  0.22095986978E+02  0.28636776595E+03  0.38098982423E+03  0.17177428556E+03 0.  0.
        -24    2    3    3    0    0 -0.63676464522E+02  0.48949405368E+02  0.20571706980E+03  0.23515955382E+03  0.80806970768E+02 0.  0.
          6    2    1    2  501    0  0.18207721156E+03 -0.22095986978E+02  0.13823603457E+04  0.14053339699E+04  0.17436484202E+03 0.  0.
         24    2    5    5    0    0  0.16396150247E+03 -0.41373752194E+02  0.76985906003E+03  0.79224366168E+03  0.79824090997E+02 0.  0.
          5    1    5    5  501    0  0.18115709089E+02  0.19277765216E+02  0.61250128566E+03  0.61309030827E+03  0.47000000000E+01 0. -1.
        -11    1    6    6    0    0  0.57995872372E+02 -0.28041530727E+01  0.12799762089E+03  0.14055168245E+03  0.00000000000E+00 0.  1.
         12    1    6    6    0    0  0.10596563010E+03 -0.38569599121E+02  0.64186143914E+03  0.65169197923E+03  0.00000000000E+00 0. -1.
         -5    1    3    3    0  503 -0.11840074704E+03 -0.26853418390E+02  0.80650696155E+02  0.14583027042E+03  0.47000000000E+01 0.  1.
         13    1    4    4    0    0  0.48260008850E+01  0.44030876426E+00  0.10024988790E+03  0.10036694764E+03  0.00000000000E+00 0. -1.
        -14    1    4    4    0    0 -0.68502465407E+02  0.48509096604E+02  0.10546718190E+03  0.13479260617E+03  0.00000000000E+00 0.  1.
</event>
<event>
12    1  0.8297444E-002  0.1929910E+03  0.7818608E-02  0.1155978E+00
         21   -1    0    0  503  502  0.00000000000E+00  0.00000000000E+00  0.33485250385E+03  0.33485250385E+03  0.00000000000E+00 0. -1.
         21   -1    0    0  501  503 -0.00000000000E+00 -0.00000000000E+00 -0.14368368623E+03  0.14368368623E+03  0.00000000000E+00 0. -1.
          6    2    1    2  501    0 -0.42861767051E+02 -0.73952343216E+02 -0.18816026601E+02  0.19390612393E+03  0.17303023406E+03 0.  0.
         24    2    3    3    0    0  0.21760305934E+02  0.13564248185E+01 -0.41059476917E+02  0.92100996642E+02  0.79506994254E+02 0.  0.
         -6    2    1    2    0  502  0.42861767051E+02  0.73952343216E+02  0.20998484422E+03  0.28463006615E+03  0.17208881316E+03 0.  0.
        -24    2    5    5    0    0 -0.28252451245E+02  0.52142065197E+02  0.58204993472E+02  0.11553798069E+03  0.80275822970E+02 0.  0.
          5    1    3    3  501    0 -0.64622072985E+02 -0.75308768035E+02  0.22243450316E+02  0.10180512729E+03  0.47000000000E+01 0. -1.
        -13    1    4    4    0    0  0.44038471504E+02 -0.44700020636E+01  0.86001312867E+00  0.44273101466E+02  0.00000000000E+00 0.  1.
         14    1    4    4    0    0 -0.22278165570E+02  0.58264268821E+01 -0.41919490045E+02  0.47827895177E+02  0.00000000000E+00 0. -1.
         -5    1    5    5    0  502  0.71114218296E+02  0.21810278020E+02  0.15177985075E+03  0.16909208546E+03  0.47000000000E+01 0.  1.
         13    1    6    6    0    0  0.18768998619E+02  0.19733156751E+02  0.51212276008E+02  0.58003189554E+02  0.00000000000E+00 0. -1.
        -14    1    6    6    0    0 -0.47021449865E+02  0.32408908446E+02  0.69927174636E+01  0.57534791140E+02  0.00000000000E+00 0.  1.
</event>
<event>
12    1  0.8297444E-002  0.2146460E+03  0.7818608E-02  0.1138165E+00
         21   -1    0    0  503  502  0.00000000000E+00  0.00000000000E+00  0.17959508652E+03  0.17959508652E+03  0.00000000000E+00 0.  1.
         21   -1    0    0  501  503 -0.00000000000E+00 -0.00000000000E+00 -0.35693853841E+03  0.35693853841E+03  0.00000000000E+00 0. -1.
          6    2    1    2  501    0  0.12009859732E+03  0.39960946775E+02 -0.23211111415E+03  0.31614625431E+03  0.17335609150E+03 0.  0.
         24    2    3    3    0    0  0.46193199934E+02  0.76673715798E+02 -0.18683765781E+03  0.22190395478E+03  0.79500845011E+02 0.  0.
         -6    2    1    2    0  502 -0.12009859732E+03 -0.39960946775E+02  0.54767662247E+02  0.22038737062E+03  0.17190272236E+03 0.  0.
        -24    2    5    5    0    0 -0.41326678952E+02  0.37009517609E+02  0.52483172199E+02  0.11012959807E+03  0.79350149472E+02 0.  0.
          5    1    3    3  501    0  0.73905397388E+02 -0.36712769023E+02 -0.45273456336E+02  0.94242299531E+02  0.47000000000E+01 0. -1.
        -11    1    4    4    0    0 -0.22454890774E+02  0.26241220162E+02 -0.53429390572E+02  0.63620150362E+02  0.00000000000E+00 0.  1.
         12    1    4    4    0    0  0.68648090708E+02  0.50432495637E+02 -0.13340826724E+03  0.15828380442E+03  0.00000000000E+00 0. -1.
         -5    1    5    5    0  502 -0.78771918369E+02 -0.76970464385E+02  0.22844900485E+01  0.11025777254E+03  0.47000000000E+01 0.  1.
         11    1    6    6    0    0  0.19080328066E+02  0.12611734654E+02  0.36460078132E+02  0.43040121601E+02  0.00000000000E+00 0. -1.
        -12    1    6    6    0    0 -0.60407007018E+02  0.24397782956E+02  0.16023094067E+02  0.67089476473E+02  0.00000000000E+00 0.  1.
</event>
<event>
12    1  0.8297444E-002  0.1988659E+03  0.7818608E-02  0.1153552E+00
         21   -1    0    0  503  502  0.00000000000E+00  0.00000000000E+00  0.65416655400E+03  0.65416655400E+03  0.00000000000E+00 0. -1.
         21   -1    0    0  501  503 -0.00000000000E+00 -0.00000000000E+00 -0.12485404081E+03  0.12485404081E+03  0.00000000000E+00 0. -1.
          6    2    1    2  501    0  0.96865148560E+02  0.24108457186E+02 -0.19262740050E+02  0.19979662057E+03  0.17199872593E+03 0.  0.
         24    2    3    3    0    0 -0.13334676935E+02  0.27851885027E+02  0.75801445346E+01  0.86215613159E+02  0.80138207197E+02 0.  0.
         -6    2    1    2    0  502 -0.96865148560E+02 -0.24108457186E+02  0.54857525324E+03  0.57922397424E+03  0.15684874612E+03 0.  0.
        -24    2    5    5    0    0 -0.44686464704E+02 -0.54515633352E+02  0.45691944192E+03  0.46936001673E+03  0.80960573709E+02 0.  0.
          5    1    3    3  501    0  0.11019982549E+03 -0.37434278409E+01 -0.26842884585E+02  0.11358100741E+03  0.47000000000E+01 0. -1.
        -11    1    4    4    0    0 -0.30773722516E+02 -0.17016367740E+02 -0.71289334463E+01  0.35880363163E+02  0.00000000000E+00 0.  1.
         12    1    4    4    0    0  0.17439045582E+02  0.44868252767E+02  0.14709077981E+02  0.50335249997E+02  0.00000000000E+00 0. -1.
         -5    1    5    5    0  502 -0.52178683856E+02  0.30407176165E+02  0.91655811318E+02  0.10986395751E+03  0.47000000000E+01 0.  1.
         11    1    6    6    0    0 -0.10432708323E+02 -0.69209158788E+02  0.28919633585E+03  0.29754540785E+03  0.00000000000E+00 0. -1.
        -12    1    6    6    0    0 -0.34253756381E+02  0.14693525436E+02  0.16772310607E+03  0.17181460888E+03  0.00000000000E+00 0.  1.
</event>
<event>
12    1  0.8297444E-002  0.1857533E+03  0.7818608E-02  0.1162725E+00
         21   -1    0    0  501  502  0.00000000000E+00  0.00000000000E+00  0.14541767331E+04  0.14541767331E+04  0.00000000000E+00 0. -1.
         21   -1    0    0  502  503 -0.00000000000E+00 -0.00000000000E+00 -0.24476542813E+02  0.24476542813E+02  0.00000000000E+00 0. -1.
         -6    2    1    2    0  503 -0.40790497490E+02  0.54704683084E+02  0.85785685735E+03  0.87739701325E+03  0.17102825532E+03 0.  0.
        -24    2    3    3    0    0 -0.53861400209E+02  0.89462030696E+02  0.48137343766E+03  0.49905751358E+03  0.80209164079E+02 0.  0.
          6    2    1    2  501    0  0.40790497490E+02 -0.54704683084E+02  0.57184333293E+03  0.60125626266E+03  0.17276524226E+03 0.  0.
         24    2    5    5    0    0 -0.31493336584E+02  0.36010168358E+01  0.16179350366E+03  0.18079525401E+03  0.74195609529E+02 0.  0.
          5    1    5    5  501    0  0.72283834074E+02 -0.58305699920E+02  0.41004982927E+03  0.42046100865E+03  0.47000000000E+01 0. -1.
        -11    1    6    6    0    0  0.13863866989E+02  0.23411066787E+02  0.86605743416E+02  0.90779070543E+02  0.00000000000E+00 0.  1.
         12    1    6    6    0    0 -0.45357203573E+02 -0.19810049951E+02  0.75187760247E+02  0.90016183467E+02  0.00000000000E+00 0. -1.
         -5    1    3    3    0  503  0.13070902720E+02 -0.34757347612E+02  0.37648341969E+03  0.37833949967E+03  0.47000000000E+01 0.  1.
         13    1    4    4    0    0 -0.86060093377E+01  0.85195038951E+02  0.29133461545E+03  0.30365789339E+03  0.00000000000E+00 0. -1.
        -14    1    4    4    0    0 -0.45255390872E+02  0.42669917452E+01  0.19003882222E+03  0.19539962019E+03  0.00000000000E+00 0.  1.
</event>
<event>
12    1  0.8297444E-002  0.2013104E+03  0.7818608E-02  0.1148701E+00
         21   -1    0    0  503  502  0.00000000000E+00  0.00000000000E+00  0.48505257612E+02  0.48505257612E+02  0.00000000000E+00 0. -1.
         21   -1    0    0  501  503 -0.00000000000E+00 -0.00000000000E+00 -0.87533404496E+03  0.87533404496E+03  0.00000000000E+00 0.  1.
          6    2    1    2  501    0 -0.10436088577E+03 -0.18928236226E+01 -0.51378910044E+03  0.55181981514E+03  0.17213683916E+03 0.  0.
         24    2    3    3    0    0 -0.12935387067E+03  0.35129127391E+02 -0.40089560865E+03  0.43031959028E+03  0.80567867671E+02 0.  0.
         -6    2    1    2    0  502  0.10436088577E+03  0.18928236226E+01 -0.31303968691E+03  0.37201948743E+03  0.17178438866E+03 0.  0.
        -24    2    5    5    0    0  0.39483641213E+02 -0.63979084776E+02 -0.14153576998E+03  0.17712503215E+03  0.75422951532E+02 0.  0.
          5    1    3    3  501    0  0.24992984909E+02 -0.37021951014E+02 -0.11289349179E+03  0.12150022486E+03  0.47000000000E+01 0. -1.
        -13    1    4    4    0    0 -0.22683232278E+02 -0.25107376069E+02 -0.82372830688E+02  0.89051628818E+02  0.00000000000E+00 0.  1.
         14    1    4    4    0    0 -0.10667063840E+03  0.60236503460E+02 -0.31852277796E+03  0.34126796147E+03  0.00000000000E+00 0. -1.
         -5    1    5    5    0  502  0.64877244553E+02  0.65871908398E+02 -0.17150391693E+03  0.19489445528E+03  0.47000000000E+01 0.  1.
         11    1    6    6    0    0  0.35362546455E+02  0.23655178728E+01 -0.26456696186E+02  0.44227391283E+02  0.00000000000E+00 0. -1.
        -12    1    6    6    0    0  0.41210947579E+01 -0.66344602649E+02 -0.11507907379E+03  0.13289764087E+03  0.00000000000E+00 0.  1.
</event>
<event>
12    1  0.8297444E-002  0.3009813E+03  0.7818608E-02  0.1084775E+00
         21   -1    0    0  501  502  0.00000000000E+00  0.00000000000E+00  0.19510036644E+03  0.19510036644E+03  0.00000000000E+00 0.  1.
         21   -1    0    0  502  503 -0.00000000000E+00 -0.00000000000E+00 -0.46403512053E+03  0.46403512053E+03  0.00000000000E+00 0.  1.
         -6    2    1    2    0  503  0.52093830066E+02  0.24136092643E+03 -0.13521614753E+03  0.32995927800E+03  0.17210710226E+03 0.  0.
        -24    2    3    3    0    0  0.96783358939E+02  0.21244127924E+03 -0.11695485832E+03  0.27348747381E+03  0.81355047520E+02 0.  0.
          6    2    1    2  501    0 -0.52093830066E+02 -0.24136092643E+03 -0.13371860656E+03  0.32917620897E+03  0.17177731770E+03 0.  0.
         24    2    5    5    0    0 -0.82747761378E+02 -0.13549314242E+03 -0.37548424795E+02  0.18282579026E+03  0.82521522793E+02 0.  0.
          5    1    5    5  501    0  0.30653931312E+02 -0.10586778401E+03 -0.96170181766E+02  0.14635041871E+03  0.47000000000E+01 0. -1.
        -11    1    6    6    0    0 -0.87385910110E+02 -0.13212148664E+03 -0.52446514730E+02  0.16686228282E+03  0.00000000000E+00 0.  1.
         12    1    6    6    0    0  0.46381487323E+01 -0.33716557795E+01  0.14898089935E+02  0.15963507449E+02  0.00000000000E+00 0. -1.
         -5    1    3    3    0  503 -0.44689528873E+02  0.28919647193E+02 -0.18261289214E+02  0.56471804190E+02  0.47000000000E+01 0.  1.
         11    1    4    4    0    0  0.33396295523E+01  0.20337800190E+02  0.12106831529E+02  0.23903025159E+02  0.00000000000E+00 0. -1.
        -12    1    4    4    0    0  0.93443729387E+02  0.19210347905E+03 -0.12906168985E+03  0.24958444865E+03  0.00000000000E+00 0.  1.
</event>
<event>
12    1  0.8297444E-002  0.2319856E+03  0.7818608E-02  0.1125555E+00
         21   -1    0    0  501  502  0.00000000000E+00  0.00000000000E+00  0.25590677707E+03  0.25590677707E+03  0.00000000000E+00 0.  1.
         21   -1    0    0  502  503 -0.00000000000E+00 -0.00000000000E+00 -0.25646380361E+03  0.25646380361E+03  0.00000000000E+00 0.  1.
         -6    2    1    2    0  503  0.11370063178E+03 -0.10414260619E+03 -0.11081004511E+03  0.25709177073E+03  0.17333146393E+03 0.  0.
        -24    2    3    3    0    0  0.22711062945E+02 -0.32970622592E+02 -0.11047668012E+03  0.14147709165E+03  0.78789696526E+02 0.  0.
          6    2    1    2  501    0 -0.11370063178E+03  0.10414260619E+03  0.11025301856E+03  0.25527880995E+03  0.17099130568E+03 0.  0.
         24    2    5    5    0    0 -0.12883640241E+02  0.35771221696E+02 -0.32064309094E+01  0.88743982738E+02  0.80122685836E+02 0.  0.
          5    1    5    5  501    0 -0.10081699154E+03  0.68371384497E+02  0.11345944947E+03  0.16653482722E+03  0.47000000000E+01 0. -1.
        -13    1    6    6    0    0 -0.44447743654E+02  0.53823541093E+01 -0.37094682117E+01  0.44925847862E+02  0.00000000000E+00 0.  1.
         14    1    6    6    0    0  0.31564103413E+02  0.30388867586E+02  0.50303730239E+00  0.43818134876E+02  0.00000000000E+00 0. -1.
         -5    1    3    3    0  503  0.90989568835E+02 -0.71171983600E+02 -0.33336499155E+00  0.11561467908E+03  0.47000000000E+01 0.  1.
         11    1    4    4    0    0  0.27347433290E+02  0.18192828601E+02 -0.23235347376E+02  0.40233598990E+02  0.00000000000E+00 0. -1.
        -12    1    4    4    0    0 -0.46363703453E+01 -0.51163451193E+02 -0.87241332740E+02  0.10124349266E+03  0.00000000000E+00 0.  1.
</event>
<event>
12    1  0.8297444E-002  0.1817515E+03  0.7818608E-02  0.1166143E+00
         21   -1    0    0  501  502  0.00000000000E+00  0.00000000000E+00  0.19096441164E+03  0.19096441164E+03  0.00000000000E+00 0. -1.
         21   -1    0    0  502  503 -0.00000000000E+00 -0.00000000000E+00 -0.54337430782E+03  0.54337430782E+03  0.00000000000E+00 0. -1.
         -6    2    1    2    0  503  0.95932229957E+01  0.57124147335E+02 -0.47937154624E+03  0.51263424960E+03  0.17216734993E+03 0.  0.
        -24    2    3    3    0    0 -0.16941549578E+02 -0.21602314084E+02 -0.34059673475E+03  0.35082421225E+03  0.79484690999E+02 0.  0.
          6    2    1    2  501    0 -0.95932229957E+01 -0.57124147335E+02  0.12696165005E+03  0.22170446986E+03  0.17227423845E+03 0.  0.
         24    2    5    5    0    0 -0.19503562768E+02 -0.74504261851E+01 -0.86846589536E+01  0.76833131925E+02  0.73430300621E+02 0.  0.
          5    1    5    5  501    0  0.99103397728E+01 -0.49673721150E+02  0.13564630901E+03  0.14487133793E+03  0.47000000000E+01 0. -1.
        -11    1    6    6    0    0 -0.26919079594E+02  0.28727504729E+02 -0.32108952191E+01  0.39499572431E+02  0.00000000000E+00 0.  1.
         12    1    6    6    0    0  0.74155168255E+01 -0.36177930915E+02 -0.54737637346E+01  0.37333559494E+02  0.00000000000E+00 0. -1.
         -5    1    3    3    0  503  0.26534772574E+02  0.78726461419E+02 -0.13877481149E+03  0.16181003735E+03  0.47000000000E+01 0.  1.
         13    1    4    4    0    0 -0.37866480610E+02 -0.23299635821E+02 -0.31304040174E+03  0.31618196739E+03  0.00000000000E+00 0. -1.
        -14    1    4    4    0    0  0.20924931032E+02  0.16973217371E+01 -0.27556333006E+02  0.34642244854E+02  0.00000000000E+00 0.  1.
</event>
<event>
12    1  0.8297444E-002  0.1731496E+03  0.7818608E-02  0.1174841E+00
         21   -1    0    0  501  502  0.00000000000E+00  0.00000000000E+00  0.30469044105E+02  0.30469044105E+02  0.00000000000E+00 0. -1.
         21   -1    0    0  502  503 -0.00000000000E+00 -0.00000000000E+00 -0.11108688194E+04  0.11108688194E+04  0.00000000000E+00 0. -1.
         -6    2    1    2    0  503 -0.10535032368E+01  0.10229787649E+01 -0.73835211026E+03  0.75838291102E+03  0.17314342220E+03 0.  0.
        -24    2    3    3    0    0  0.61318140995E+02 -0.66859481435E+01 -0.56451908387E+03  0.57347844753E+03  0.79944464492E+02 0.  0.
          6    2    1    2  501    0  0.10535032368E+01 -0.10229787649E+01 -0.34204766508E+03  0.38295495253E+03  0.17220840317E+03 0.  0.
         24    2    5    5    0    0 -0.37500969218E+02  0.53586711007E+02 -0.17301596875E+03  0.20112406976E+03  0.78984224411E+02 0.  0.
          5    1    5    5  501    0  0.38554472455E+02 -0.54609689771E+02 -0.16903169633E+03  0.18183088276E+03  0.47000000000E+01 0. -1.
        -11    1    6    6    0    0 -0.30421944904E+02  0.66616455412E+02 -0.17117324013E+03  0.18618143033E+03  0.00000000000E+00 0.  1.
         12    1    6    6    0    0 -0.70790243147E+01 -0.13029744405E+02 -0.18427286261E+01  0.14942639436E+02  0.00000000000E+00 0. -1.
         -5    1    3    3    0  503 -0.62371644231E+02  0.77089269084E+01 -0.17383302638E+03  0.18490446349E+03  0.47000000000E+01 0.  1.
         11    1    4    4    0    0 -0.14569855317E+02  0.15700370685E+02 -0.14344042216E+03  0.14503081408E+03  0.00000000000E+00 0. -1.
        -12    1    4    4    0    0  0.75887996312E+02 -0.22386318829E+02 -0.42107866171E+03  0.42844763345E+03  0.00000000000E+00 0.  1.
</event>
<event>
12    1  0.8297444E-002  0.2466644E+03  0.7818608E-02  0.1116376E+00
         21   -1    0    0  503  502  0.00000000000E+00  0.00000000000E+00  0.32134892282E+03  0.32134892282E+03  0.00000000000E+00 0. -1.
         21   -1    0    0  501  503 -0.00000000000E+00 -0.00000000000E+00 -0.19973830007E+03  0.19973830007E+03  0.00000000000E+00 0.  1.
          6    2    1    2  501    0 -0.73945817159E+02  0.16031172964E+03 -0.95152271979E+01  0.24684784404E+03  0.17226573664E+03 0.  0.
         24    2    3    3    0    0 -0.89734213104E+02  0.16401187243E+03  0.28361879898E+02  0.20537821967E+03  0.80147948101E+02 0.  0.
         -6    2    1    2    0  502  0.73945817159E+02 -0.16031172964E+03  0.13112584995E+03  0.27423937885E+03  0.16384570135E+03 0.  0.
        -24    2    5    5    0    0  0.29747145670E+02 -0.13583573929E+03  0.15041937100E+03  0.21995377652E+03  0.80108900211E+02 0.  0.
          5    1    3    3  501    0  0.15788395945E+02 -0.37001427872E+01 -0.37877107096E+02  0.41469624367E+02  0.47000000000E+01 0. -1.
        -11    1    4    4    0    0 -0.43441760449E+02  0.14177230870E+03  0.35013321241E+01  0.14832003706E+03  0.00000000000E+00 0.  1.
         12    1    4    4    0    0 -0.46292452655E+02  0.22239563724E+02  0.24860547774E+02  0.57058182613E+02  0.00000000000E+00 0. -1.
         -5    1    5    5    0  502  0.44198671489E+02 -0.24475990352E+02 -0.19293521048E+02  0.54285602323E+02  0.47000000000E+01 0.  1.
         13    1    6    6    0    0  0.23349011505E+02 -0.10852793855E+02  0.60800643755E+02  0.66027855893E+02  0.00000000000E+00 0. -1.
        -14    1    6    6    0    0  0.63981341643E+01 -0.12498294543E+03  0.89618727240E+02  0.15392592063E+03  0.00000000000E+00 0.  1.
</event>
<event>
12    1  0.8297444E-002  0.2419696E+03  0.7818608E-02  0.1118558E+00
         21   -1    0    0  501  502  0.00000000000E+00  0.00000000000E+00  0.52062198093E+03  0.52062198093E+03  0.00000000000E+00 0.  1.
         21   -1    0    0  502  503 -0.00000000000E+00 -0.00000000000E+00 -0.19186986519E+03  0.19186986519E+03  0.00000000000E+00 0.  1.
         -6    2    1    2    0  503 -0.61400480976E+02 -0.15843086372E+03 -0.65178270836E+02  0.25018194442E+03  0.17167539335E+03 0.  0.
        -24    2    3    3    0    0 -0.42834720677E+02 -0.15901967098E+02  0.84510577413E+00  0.91940514680E+02  0.79778807855E+02 0.  0.
          6    2    1    2  501    0  0.61400480976E+02  0.15843086372E+03  0.39393038658E+03  0.46230990169E+03  0.17227576176E+03 0.  0.
         24    2    5    5    0    0 -0.26507539036E+02  0.12100234951E+03  0.21223629428E+03  0.25697226064E+03  0.75141732171E+02 0.  0.
          5    1    5    5  501    0  0.87908020012E+02  0.37428514207E+02  0.18169409229E+03  0.20533764105E+03  0.47000000000E+01 0. -1.
        -11    1    6    6    0    0 -0.13618323340E+02  0.18527324398E+02  0.10729487650E+03  0.10973108494E+03  0.00000000000E+00 0.  1.
         12    1    6    6    0    0 -0.12889215696E+02  0.10247502512E+03  0.10494141778E+03  0.14724117569E+03  0.00000000000E+00 0. -1.
         -5    1    3    3    0  503 -0.18565760298E+02 -0.14252889662E+03 -0.66023376610E+02  0.15824142974E+03  0.47000000000E+01 0.  1.
         13    1    4    4    0    0 -0.41618629342E+02 -0.36672399313E+02 -0.23214650927E+02  0.60132314086E+02  0.00000000000E+00 0. -1.
        -14    1    4    4    0    0 -0.12160913355E+01  0.20770432215E+02  0.24059756701E+02  0.31808200594E+02  0.00000000000E+00 0.  1.
</event>
<event>
12    1  0.8297444E-002  0.1883971E+03  0.7818608E-02  0.1159916E+00
         21   -1    0    0  501  502  0.00000000000E+00  0.00000000000E+00  0.11405691798E+03  0.11405691798E+03  0.00000000000E+00 0. -1.
         21   -1    0    0  502  503 -0.00000000000E+00 -0.00000000000E+00 -0.35408126080E+03  0.35408126080E+03  0.00000000000E+00 0. -1.
         -6    2    1    2    0  503 -0.59734614668E+02 -0.50245801965E+02 -0.20148300641E+03  0.27584209334E+03  0.17146601348E+03 0.  0.
        -24    2    3    3    0    0  0.23332340073E+02  0.13776728001E+01 -0.14452884077E+03  0.16256822565E+03  0.70665027431E+02 0.  0.
          6    2    1    2  501    0  0.59734614668E+02  0.50245801965E+02 -0.38541336415E+02  0.19229608545E+03  0.17146278040E+03 0.  0.
         24    2    5    5    0    0 -0.99160275140E+01  0.14044299564E+01  0.27591772187E+02  0.84442621765E+02  0.79176703979E+02 0.  0.
          5    1    5    5  501    0  0.69650642182E+02  0.48841372009E+02 -0.66133108602E+02  0.10785346369E+03  0.47000000000E+01 0. -1.
        -11    1    6    6    0    0 -0.42446202728E+02  0.12222561670E+02  0.23163287075E+02  0.49875936161E+02  0.00000000000E+00 0.  1.
         12    1    6    6    0    0  0.32530175214E+02 -0.10818131714E+02  0.44284851117E+01  0.34566685604E+02  0.00000000000E+00 0. -1.
         -5    1    3    3    0  503 -0.83066954741E+02 -0.51623474765E+02 -0.56954165641E+02  0.11327386769E+03  0.47000000000E+01 0.  1.
         11    1    4    4    0    0  0.24318812899E+02 -0.32292421951E+02 -0.71279381760E+02  0.81944831688E+02  0.00000000000E+00 0. -1.
        -12    1    4    4    0    0 -0.98647282567E+00  0.33670094751E+02 -0.73249459006E+02  0.80623393961E+02  0.00000000000E+00 0.  1.
</event>
<event>
12    1  0.8297444E-002  0.2162901E+03  0.7818608E-02  0.1136977E+00
         21   -1    0    0  503  502  0.00000000000E+00  0.00000000000E+00  0.27716339605E+03  0.27716339605E+03  0.00000000000E+00 0.  1.
         21   -1    0    0  501  503 -0.00000000000E+00 -0.00000000000E+00 -0.67105897826E+03  0.67105897826E+03  0.00000000000E+00 0.  1.
          6    2    1    2  501    0  0.12386528089E+03 -0.37405148782E+02 -0.60743892362E+03  0.64427802405E+03  0.17137786723E+03 0.  0.
         24    2    3    3    0    0  0.21670654384E+02 -0.50639158184E+02 -0.17641402590E+03  0.20108119063E+03  0.79232538077E+02 0.  0.
         -6    2    1    2    0  502 -0.12386528089E+03  0.37405148782E+02  0.21354334142E+03  0.30394435026E+03  0.17331952119E+03 0.  0.
        -24    2    5    5    0    0 -0.89341032168E+02  0.26002019363E+02  0.42849815619E+02  0.12935819714E+03  0.78990578105E+02 0.  0.
          5    1    3    3  501    0  0.10219462651E+03  0.13234009402E+02 -0.43102489773E+03  0.44319683342E+03  0.47000000000E+01 0. -1.
        -13    1    4    4    0    0  0.42407046271E+02 -0.53141953950E+02 -0.93679763643E+02  0.11575112509E+03  0.00000000000E+00 0.  1.
         14    1    4    4    0    0 -0.20736391887E+02  0.25027957661E+01 -0.82734262253E+02  0.85330065543E+02  0.00000000000E+00 0. -1.
         -5    1    5    5    0  502 -0.34524248725E+02  0.11403129419E+02  0.17069352580E+03  0.17458615312E+03  0.47000000000E+01 0.  1.
         11    1    6    6    0    0 -0.54881177408E+02 -0.25079819026E+02  0.18631053526E+02  0.63151065799E+02  0.00000000000E+00 0. -1.
        -12    1    6    6    0    0 -0.34459854760E+02  0.51081838389E+02  0.24218762092E+02  0.66207131342E+02  0.00000000000E+00 0.  1.
</event>
<event>
12    1  0.8297444E-002  0.1917870E+03  0.7818608E-02  0.1159241E+00
         21   -1    0    0  503  502  0.00000000000E+00  0.00000000000E+00  0.64268594174E+03  0.64268594174E+03  0.00000000000E+00 0.  1.
         21   -1    0    0  501  503 -0.00000000000E+00 -0.00000000000E+00 -0.11213795924E+03  0.11213795924E+03  0.00000000000E+00 0.  1.
          6    2    1    2  501    0 -0.61342015018E+02 -0.77679330316E+02 -0.95737082903E+01  0.18166275636E+03  0.15202887881E+03 0.  0.
         24    2    3    3    0    0 -0.68231501603E+02 -0.14350530925E+02  0.24612336656E+02  0.10921430899E+03  0.80377376312E+02 0.  0.
         -6    2    1    2    0  502  0.61342015018E+02  0.77679330316E+02  0.54012169079E+03  0.57316114463E+03  0.16427213909E+03 0.  0.
        -24    2    5    5    0    0  0.10586475421E+03  0.70892497832E+02  0.40361226843E+03  0.42933747553E+03  0.72074352076E+02 0.  0.
          5    1    3    3  501    0  0.68894865856E+01 -0.63328799391E+02 -0.34186044946E+02  0.72448447373E+02  0.47000000000E+01 0. -1.
        -11    1    4    4    0    0 -0.68373956489E+02 -0.29015534845E+02 -0.67604926647E+01  0.74582862973E+02  0.00000000000E+00 0.  1.
         12    1    4    4    0    0  0.14245488515E+00  0.14665003919E+02  0.31372829321E+02  0.34631446013E+02  0.00000000000E+00 0. -1.
         -5    1    5    5    0  502 -0.44522739196E+02  0.67868324843E+01  0.13650942236E+03  0.14382366910E+03  0.47000000000E+01 0.  1.
         13    1    6    6    0    0  0.92975799855E+02  0.30263417963E+02  0.33099299637E+03  0.34513292725E+03  0.00000000000E+00 0. -1.
        -14    1    6    6    0    0  0.12888954359E+02  0.40629079869E+02  0.72619272064E+02  0.84204548278E+02  0.00000000000E+00 0.  1.
</event>
<event>
12    1  0.8297444E-002  0.2006700E+03  0.7818608E-02  0.1149531E+00
         21   -1    0    0  503  502  0.00000000000E+00  0.00000000000E+00  0.61767896474E+03  0.61767896474E+03  0.00000000000E+00 0.  1.
         21   -1    0    0  501  503 -0.00000000000E+00 -0.00000000000E+00 -0.12871843550E+03  0.12871843550E+03  0.00000000000E+00 0. -1.
          6    2    1    2  501    0 -0.98968702763E+02  0.21009420755E+02 -0.18303133633E+02  0.20150300113E+03  0.17329816755E+03 0.  0.
         24    2    3    3    0    0 -0.77281371867E+01  0.59784958420E+02 -0.17797137378E+02  0.10225216154E+03  0.80652347034E+02 0.  0.
         -6    2    1    2    0  502  0.98968702763E+02 -0.21009420755E+02  0.50726366288E+03  0.54489439911E+03  0.17133967030E+03 0.  0.
        -24    2    5    5    0    0  0.31113279612E+02 -0.49308492084E+01  0.43503266297E+03  0.44438426897E+03  0.85038880578E+02 0.  0.
          5    1    3    3  501    0 -0.91240565576E+02 -0.38775537666E+02 -0.50599625518E+00  0.99250839594E+02  0.47000000000E+01 0. -1.
        -11    1    4    4    0    0 -0.18402126024E+02 -0.35935683357E+01  0.20222967004E+02  0.27577533792E+02  0.00000000000E+00 0.  1.
         12    1    4    4    0    0  0.10673988837E+02  0.63378526756E+02 -0.38020104382E+02  0.74674627744E+02  0.00000000000E+00 0. -1.
         -5    1    5    5    0  502  0.67855423151E+02 -0.16078571546E+02  0.72230999906E+02  0.10051013014E+03  0.47000000000E+01 0.  1.
         13    1    6    6    0    0 -0.17162431143E+02  0.14935831997E+02  0.40838165182E+02  0.46748089326E+02  0.00000000000E+00 0. -1.
        -14    1    6    6    0    0  0.48275710755E+02 -0.19866681205E+02  0.39419449779E+03  0.39763617964E+03  0.00000000000E+00 0.  1.
</event>
<event>
12    1  0.8297444E-002  0.1729720E+03  0.7818608E-02  0.1175321E+00
         21   -1    0    0  501  502  0.00000000000E+00  0.00000000000E+00  0.18450348349E+02  0.18450348349E+02  0.00000000000E+00 0. -1.
         21   -1    0    0  502  503 -0.00000000000E+00 -0.00000000000E+00 -0.25087934217E+04  0.25087934217E+04  0.00000000000E+00 0. -1.
         -6    2    1    2    0  503 -0.21624156312E+02  0.57957652828E+01 -0.19999967948E+04  0.20072833843E+04  0.16940546298E+03 0.  0.
        -24    2    3    3    0    0 -0.49197598379E+02 -0.14815980270E+02 -0.66268399012E+03  0.66951929218E+03  0.80412031960E+02 0.  0.
          6    2    1    2  501    0  0.21624156312E+02 -0.57957652828E+01 -0.49034627858E+03  0.51996038572E+03  0.17151715590E+03 0.  0.
         24    2    5    5    0    0 -0.22325920220E+02  0.29713741658E+02 -0.42105873157E+03  0.43043168372E+03  0.81238080744E+02 0.  0.
          5    1    5    5  501    0  0.43950076532E+02 -0.35509506941E+02 -0.69287547009E+02  0.89528701995E+02  0.47000000000E+01 0. -1.
        -11    1    6    6    0    0 -0.21022730798E+02  0.52296750142E+02 -0.18772485188E+03  0.19600389103E+03  0.00000000000E+00 0.  1.
         12    1    6    6    0    0 -0.13031894221E+01 -0.22583008484E+02 -0.23333387969E+03  0.23442779269E+03  0.00000000000E+00 0. -1.
         -5    1    3    3    0  503  0.27573442067E+02  0.20611745553E+02 -0.13373128047E+04  0.13377640922E+04  0.47000000000E+01 0.  1.
         13    1    4    4    0    0 -0.27959319540E+02 -0.45855348673E+02 -0.48060656969E+03  0.48359808868E+03  0.00000000000E+00 0. -1.
        -14    1    4    4    0    0 -0.21238278839E+02  0.31039368403E+02 -0.18207742044E+03  0.18592120350E+03  0.00000000000E+00 0.  1.
</event>
<event>
12    1  0.8297444E-002  0.2483945E+03  0.7818608E-02  0.1115034E+00
         21   -1    0    0  503  502  0.00000000000E+00  0.00000000000E+00  0.66292157916E+03  0.66292157916E+03  0.00000000000E+00 0. -1.
         21   -1    0    0  501  503 -0.00000000000E+00 -0.00000000000E+00 -0.16611697811E+03  0.16611697811E+03  0.00000000000E+00 0. -1.
          6    2    1    2  501    0 -0.16498127775E+03  0.60083329880E+02 -0.30771841915E+02  0.24591185593E+03  0.16940161185E+03 0.  0.
         24    2    3    3    0    0 -0.60078733231E+02  0.15682732544E+02  0.42676180664E+02  0.11029231858E+03  0.80546488784E+02 0.  0.
         -6    2    1    2    0  502  0.16498127775E+03 -0.60083329880E+02  0.52757644297E+03  0.58312670133E+03  0.17570150283E+03 0.  0.
        -24    2    5    5    0    0  0.13415165000E+03  0.27811655835E+02  0.35561137186E+03  0.38749932559E+03  0.70186367152E+02 0.  0.
          5    1    3    3  501    0 -0.10490254452E+03  0.44400597336E+02 -0.73448022579E+02  0.13561953735E+03  0.47000000000E+01 0. -1.
        -13    1    4    4    0    0 -0.17300308413E+02 -0.23146974099E+02 -0.11489882881E+02  0.31098239335E+02  0.00000000000E+00 0.  1.
         14    1    4    4    0    0 -0.42778424817E+02  0.38829706642E+02  0.54166063545E+02  0.79194079247E+02  0.00000000000E+00 0. -1.
         -5    1    5    5    0  502  0.30829627749E+02 -0.87894985715E+02  0.17196507111E+03  0.19562737575E+03  0.47000000000E+01 0.  1.
         13    1    6    6    0    0 -0.53542305774E+01  0.12462016537E+02  0.29419818458E+02  0.32395915782E+02  0.00000000000E+00 0. -1.
        -14    1    6    6    0    0  0.13950588058E+03  0.15349639298E+02  0.32619155340E+03  0.35510340980E+03  0.00000000000E+00 0.  1.
</event>
<event>
12    1  0.8297444E-002  0.1760147E+03  0.7818608E-02  0.1172083E+00
         21   -1    0    0  501  502  0.00000000000E+00  0.00000000000E+00  0.50082748243E+02  0.50082748243E+02  0.00000000000E+00 0.  1.
         21   -1    0    0  502  503 -0.00000000000E+00 -0.00000000000E+00 -0.62501578287E+03  0.62501578287E+03  0.00000000000E+00 0. -1.
         -6    2    1    2    0  503 -0.28193770327E+02  0.13534091499E+02 -0.33216732730E+03  0.37523797263E+03  0.17172752389E+03 0.  0.
        -24    2    3    3    0    0 -0.10976043875E+02 -0.71690190682E+01 -0.33761920006E+03  0.34736537304E+03  0.80648061149E+02 0.  0.
          6    2    1    2  501    0  0.28193770327E+02 -0.13534091499E+02 -0.24276570733E+03  0.29986055848E+03  0.17321404551E+03 0.  0.
         24    2    5    5    0    0  0.38685247036E+02 -0.21126592467E+02 -0.44569380503E+02  0.10118597248E+03  0.79431039912E+02 0.  0.
          5    1    5    5  501    0 -0.10491476709E+02  0.75925009683E+01 -0.19819632682E+03  0.19867458600E+03  0.47000000000E+01 0. -1.
        -11    1    6    6    0    0  0.72550813997E+01 -0.16053055467E+02  0.21530157630E+02  0.27818779332E+02  0.00000000000E+00 0.  1.
         12    1    6    6    0    0  0.31430165637E+02 -0.50735370002E+01 -0.66099538133E+02  0.73367193152E+02  0.00000000000E+00 0. -1.
         -5    1    3    3    0  503 -0.17217726453E+02  0.20703110567E+02  0.54518727585E+01  0.27872599590E+02  0.47000000000E+01 0.  1.
         11    1    4    4    0    0  0.30996316237E+02 -0.19604478253E+02 -0.12415427413E+03  0.12945806647E+03  0.00000000000E+00 0. -1.
        -12    1    4    4    0    0 -0.41972360112E+02  0.12435459185E+02 -0.21346492593E+03  0.21790730658E+03  0.00000000000E+00 0.  1.
</event>
<event>
12    1  0.8297444E-002  0.1916180E+03  0.7818608E-02  0.1159114E+00
         21   -1    0    0  503  502  0.00000000000E+00  0.00000000000E+00  0.27055576878E+02  0.27055576878E+02  0.00000000000E+00 0. -1.
         21   -1    0    0  501  503 -0.00000000000E+00 -0.00000000000E+00 -0.25694250895E+04  0.25694250895E+04  0.00000000000E+00 0. -1.
          6    2    1    2  501    0  0.40444320277E+02  0.42439826850E+02 -0.22018546172E+04  0.22101767346E+04  0.18242960474E+03 0.  0.
         24    2    3    3    0    0  0.23085745491E+02 -0.49063975770E+02 -0.12707932924E+04  0.12744569333E+04  0.79904050663E+02 0.  0.
         -6    2    1    2    0  502 -0.40444320277E+02 -0.42439826850E+02 -0.34051489537E+03  0.38630393178E+03  0.17275257392E+03 0.  0.
        -24    2    5    5    0    0  0.14313322117E+02  0.25066411370E+02 -0.10652337790E+03  0.13664494067E+03  0.80569309297E+02 0.  0.
          5    1    3    3  501    0  0.17358574787E+02  0.91503802620E+02 -0.93106132477E+03  0.93571980128E+03  0.47000000000E+01 0. -1.
        -13    1    4    4    0    0 -0.11763893177E+02  0.17698318985E+02 -0.28412393954E+03  0.28491758931E+03  0.00000000000E+00 0.  1.
         14    1    4    4    0    0  0.34849638668E+02 -0.66762294755E+02 -0.98666935291E+03  0.98953934398E+03  0.00000000000E+00 0. -1.
         -5    1    5    5    0  502 -0.54757642394E+02 -0.67506238220E+02 -0.23399151746E+03  0.24965899112E+03  0.47000000000E+01 0.  1.
         11    1    6    6    0    0  0.41131987248E+02  0.60583964162E+01 -0.24446988706E+02  0.48230693536E+02  0.00000000000E+00 0. -1.
        -12    1    6    6    0    0 -0.26818665131E+02  0.19008014954E+02 -0.82076389197E+02  0.88414247130E+02  0.00000000000E+00 0.  1.
</event>
<event>
12    1  0.8297444E-002  0.2989751E+03  0.7818608E-02  0.1085861E+00
         21   -1    0    0  501  502  0.00000000000E+00  0.00000000000E+00  0.27556511409E+03  0.27556511409E+03  0.00000000000E+00 0.  1.
         21   -1    0    0  502  503 -0.00000000000E+00 -0.00000000000E+00 -0.34539590455E+03  0.34539590455E+03  0.00000000000E+00 0.  1.
         -6    2    1    2    0  503  0.23541307097E+03 -0.63343991518E+02 -0.11313503615E+03  0.31886602321E+03  0.17159320823E+03 0.  0.
        -24    2    3    3    0    0  0.10754129382E+03 -0.16430199128E+02  0.60190234744E+01  0.13783598363E+03  0.84424217019E+02 0.  0.
          6    2    1    2  501    0 -0.23541307097E+03  0.63343991518E+02  0.43304245682E+02  0.30209499543E+03  0.17307326000E+03 0.  0.
         24    2    5    5    0    0 -0.13811544733E+03  0.81931537520E+02  0.79331375257E+02  0.19658495564E+03  0.81015579060E+02 0.  0.
          5    1    5    5  501    0 -0.97297623636E+02 -0.18587546002E+02 -0.36027129575E+02  0.10551003979E+03  0.47000000000E+01 0. -1.
        -11    1    6    6    0    0 -0.98563216078E+02  0.32953476826E+02  0.12341539870E+02  0.10465635578E+03  0.00000000000E+00 0.  1.
         12    1    6    6    0    0 -0.39552231252E+02  0.48978060694E+02  0.66989835387E+02  0.91928599857E+02  0.00000000000E+00 0. -1.
         -5    1    3    3    0  503  0.12787177714E+03 -0.46913792390E+02 -0.11915405962E+03  0.18103003958E+03  0.47000000000E+01 0.  1.
         11    1    4    4    0    0 -0.77242271283E+01 -0.19407530996E+02 -0.64460924283E+01  0.21860193313E+02  0.00000000000E+00 0. -1.
        -12    1    4    4    0    0  0.11526552095E+03  0.29773318680E+01  0.12465115903E+02  0.11597579032E+03  0.00000000000E+00 0.  1.
</event>
<event>
12    1  0.8297444E-002  0.2706242E+03  0.7818608E-02  0.1101226E+00
         21   -1    0    0  503  502  0.00000000000E+00  0.00000000000E+00  0.10730369538E+04  0.10730369538E+04  0.00000000000E+00 0. -1.
         21   -1    0    0  501  503 -0.00000000000E+00 -0.00000000000E+00 -0.15208872299E+03  0.15208872299E+03  0.00000000000E+00 0.  1.
          6    2    1    2  501    0 -0.52382228759E+02 -0.19938935353E+03  0.50409863221E+01  0.27067117380E+03  0.17532102153E+03 0.  0.
         24    2    3    3    0    0 -0.37188538686E+02 -0.44834839136E+02  0.44809910107E+02  0.11029161326E+03  0.82238444190E+02 0.  0.
         -6    2    1    2    0  502  0.52382228759E+02  0.19938935353E+03  0.91590724446E+03  0.95445450297E+03  0.17203867471E+03 0.  0.
        -24    2    5    5    0    0  0.43491236641E+02  0.18459631957E+03  0.53851868704E+03  0.57664225216E+03  0.80911197107E+02 0.  0.
          5    1    3    3  501    0 -0.15193690073E+02 -0.15455451439E+03 -0.39768923785E+02  0.16037956053E+03  0.47000000000E+01 0. -1.
        -13    1    4    4    0    0 -0.46412549278E+02 -0.37905064232E+02 -0.40760347193E+01  0.60062739564E+02  0.00000000000E+00 0.  1.
         14    1    4    4    0    0  0.92240105923E+01 -0.69297749035E+01  0.48885944827E+02  0.50228873701E+02  0.00000000000E+00 0. -1.
         -5    1    5    5    0  502  0.88909921186E+01  0.14793033963E+02  0.37738855742E+03  0.37781225081E+03  0.47000000000E+01 0.  1.
         13    1    6    6    0    0  0.36214669723E+02  0.13355273528E+03  0.47546605776E+03  0.49519269733E+03  0.00000000000E+00 0. -1.
        -14    1    6    6    0    0  0.72765669178E+01  0.51043584282E+02  0.63052629281E+02  0.81449554828E+02  0.00000000000E+00 0.  1.
</event>
<event>
12    1  0.8297444E-002  0.1773613E+03  0.7818608E-02  0.1171784E+00
         21   -1    0    0  501  502  0.00000000000E+00  0.00000000000E+00  0.93071426070E+03  0.93071426070E+03  0.00000000000E+00 0.  1.
         21   -1    0    0  502  503 -0.00000000000E+00 -0.00000000000E+00 -0.45508874372E+02  0.45508874372E+02  0.00000000000E+00 0.  1.
         -6    2    1    2    0  503  0.15307028823E+02  0.35711377756E+02  0.17899347841E+03  0.24808009304E+03  0.16731843777E+03 0.  0.
        -24    2    3    3    0    0 -0.25493430526E+02 -0.19277871064E+02  0.45472629285E+02  0.97952140551E+02  0.80655505154E+02 0.  0.
          6    2    1    2  501    0 -0.15307028823E+02 -0.35711377756E+02  0.70621190792E+03  0.72814304203E+03  0.17305323786E+03 0.  0.
         24    2    5    5    0    0  0.38407270494E+02 -0.69996933396E+02  0.48214939389E+03  0.49514770845E+03  0.79552033553E+02 0.  0.
          5    1    5    5  501    0 -0.53714299317E+02  0.34285555641E+02  0.22406251403E+03  0.23299533358E+03  0.47000000000E+01 0. -1.
        -11    1    6    6    0    0  0.55774326868E+01  0.17125880642E+01 -0.72115815745E+00  0.58788419218E+01  0.00000000000E+00 0.  1.
         12    1    6    6    0    0  0.32829837807E+02 -0.71709521461E+02  0.48287055205E+03  0.48926886653E+03  0.00000000000E+00 0. -1.
         -5    1    3    3    0  503  0.40800459349E+02  0.54989248820E+02  0.13352084912E+03  0.15012795249E+03  0.47000000000E+01 0.  1.
         11    1    4    4    0    0  0.24223976332E+02 -0.26937900750E+02  0.15573518188E+02  0.39433310727E+02  0.00000000000E+00 0. -1.
        -12    1    4    4    0    0 -0.49717406858E+02  0.76600296867E+01  0.29899111097E+02  0.58518829824E+02  0.00000000000E+00 0.  1.
</event>
<event>
12    1  0.8297444E-002  0.2455157E+03  0.7818608E-02  0.1116270E+00
         21   -1    0    0  501  502  0.00000000000E+00  0.00000000000E+00  0.11978920728E+04  0.11978920728E+04  0.00000000000E+00 0. -1.
         21   -1    0    0  502  503 -0.00000000000E+00 -0.00000000000E+00 -0.10278506701E+03  0.10278506701E+03  0.00000000000E+00 0. -1.
         -6    2    1    2    0  503 -0.44227286761E+02  0.16806007557E+03  0.82041871275E+02  0.25828617454E+03  0.17257067370E+03 0.  0.
        -24    2    3    3    0    0  0.29025483838E+02  0.12513121952E+03  0.88914542872E+02  0.17297393218E+03  0.74255534929E+02 0.  0.
          6    2    1    2  501    0  0.44227286761E+02 -0.16806007557E+03  0.10130651346E+04  0.10423909653E+04  0.17342928189E+03 0.  0.
         24    2    5    5    0    0  0.43082012301E+02 -0.18414834877E+02  0.24864204142E+03  0.26344310760E+03  0.73377382434E+02 0.  0.
          5    1    5    5  501    0  0.11452744599E+01 -0.14964524070E+03  0.76442309314E+03  0.77894785772E+03  0.47000000000E+01 0. -1.
        -11    1    6    6    0    0  0.53168563121E+02 -0.32457773917E+02  0.13734803741E+03  0.15081407949E+03  0.00000000000E+00 0.  1.
         12    1    6    6    0    0 -0.10086550821E+02  0.14042939040E+02  0.11129400401E+03  0.11262902811E+03  0.00000000000E+00 0. -1.
         -5    1    3    3    0  503 -0.73252770598E+02  0.42928856054E+02 -0.68726715974E+01  0.85312242365E+02  0.47000000000E+01 0.  1.
         13    1    4    4    0    0  0.24870089094E+02  0.14304653577E+02 -0.31143167100E+01  0.28859026561E+02  0.00000000000E+00 0. -1.
        -14    1    4    4    0    0  0.41553947436E+01  0.11082656594E+03  0.92028859582E+02  0.14411490561E+03  0.00000000000E+00 0.  1.
</event>
<event>
12    1  0.8297444E-002  0.2118326E+03  0.7818608E-02  0.1140243E+00
         21   -1    0    0  503  502  0.00000000000E+00  0.00000000000E+00  0.18903558722E+03  0.18903558722E+03  0.00000000000E+00 0.  1.
         21   -1    0    0  501  503 -0.00000000000E+00 -0.00000000000E+00 -0.29630888902E+03  0.29630888902E+03  0.00000000000E+00 0.  1.
          6    2    1    2  501    0 -0.10408154795E+03 -0.62507901002E+02 -0.16242390049E+03  0.26645034654E+03  0.17284113345E+03 0.  0.
         24    2    3    3    0    0 -0.27767288371E+02  0.27370995644E+02 -0.55246677339E+02  0.10704165970E+03  0.82979080791E+02 0.  0.
         -6    2    1    2    0  502  0.10408154795E+03  0.62507901002E+02  0.55150598690E+02  0.21889412970E+03  0.17358814813E+03 0.  0.
        -24    2    5    5    0    0  0.65945344016E+02  0.16420617345E+02 -0.35456291594E+02  0.11021981658E+03  0.79201226514E+02 0.  0.
          5    1    3    3  501    0 -0.76314259575E+02 -0.89878896646E+02 -0.10717722316E+03  0.15940868684E+03  0.47000000000E+01 0. -1.
        -13    1    4    4    0    0 -0.14996752899E+00 -0.21323994153E+02 -0.45457568901E+02  0.50210813450E+02  0.00000000000E+00 0.  1.
         14    1    4    4    0    0 -0.27617320842E+02  0.48694989797E+02 -0.97891084379E+01  0.56830846253E+02  0.00000000000E+00 0. -1.
         -5    1    5    5    0  502  0.38136203929E+02  0.46087283657E+02  0.90606890284E+02  0.10867431312E+03  0.47000000000E+01 0.  1.
         11    1    6    6    0    0 -0.13347411725E+02  0.10907131558E+01  0.10751800529E+02  0.17173941585E+02  0.00000000000E+00 0. -1.
        -12    1    6    6    0    0  0.79292755742E+02  0.15329904189E+02 -0.46208092123E+02  0.93045874993E+02  0.00000000000E+00 0.  1.
</event>
<event>
12    1  0.8297444E-002  0.1787930E+03  0.7818608E-02  0.1169062E+00
         21   -1    0    0  503  502  0.00000000000E+00  0.00000000000E+00  0.11545570910E+03  0.11545570910E+03  0.00000000000E+00 0. -1.
         21   -1    0    0  501  503 -0.00000000000E+00 -0.00000000000E+00 -0.32869491222E+03  0.32869491222E+03  0.00000000000E+00 0.  1.
          6    2    1    2  501    0  0.13560229611E+02  0.44117757752E+02 -0.19516815955E+03  0.26444667756E+03  0.17236930816E+03 0.  0.
         24    2    3    3    0    0  0.20489283515E+02  0.21250347092E+01 -0.20495842169E+03  0.22052242674E+03  0.78726485774E+02 0.  0.
         -6    2    1    2    0  502 -0.13560229611E+02 -0.44117757752E+02 -0.18071043572E+02  0.17970394377E+03  0.17273299747E+03 0.  0.
        -24    2    5    5    0    0 -0.31422646896E+02 -0.90838797724E+02 -0.20381068550E+02  0.12941132261E+03  0.84218956030E+02 0.  0.
          5    1    3    3  501    0 -0.69290539039E+01  0.41992723042E+02  0.97902621488E+01  0.43924250813E+02  0.47000000000E+01 0. -1.
        -11    1    4    4    0    0  0.43602129492E+02  0.23361703871E+02 -0.13726390078E+03  0.14590508340E+03  0.00000000000E+00 0.  1.
         12    1    4    4    0    0 -0.23112845977E+02 -0.21236669162E+02 -0.67694520911E+02  0.74617343343E+02  0.00000000000E+00 0. -1.
         -5    1    5    5    0  502  0.17862417285E+02  0.46721039973E+02  0.23100249784E+01  0.50292621157E+02  0.47000000000E+01 0.  1.
         11    1    6    6    0    0  0.21329804643E+02 -0.66168135623E+02 -0.94985292921E+01  0.70166977964E+02  0.00000000000E+00 0. -1.
        -12    1    6    6    0    0 -0.52752451539E+02 -0.24670662102E+02 -0.10882539258E+02  0.59244344647E+02  0.00000000000E+00 0.  1.
</event>
<event>
12    1  0.8297444E-002  0.2380859E+03  0.7818608E-02  0.1121322E+00
         21   -1    0    0  503  502  0.00000000000E+00  0.00000000000E+00  0.59627904548E+03  0.59627904548E+03  0.00000000000E+00 0. -1.
         21   -1    0    0  501  503 -0.00000000000E+00 -0.00000000000E+00 -0.17469988201E+03  0.17469988201E+03  0.00000000000E+00 0. -1.
          6    2    1    2  501    0 -0.11559365062E+03 -0.11446311478E+03 -0.50781108819E+02  0.24200903779E+03  0.17183118648E+03 0.  0.
         24    2    3    3    0    0 -0.53380632638E+02 -0.76212447122E+02 -0.97565097164E+02  0.15515050482E+03  0.76778264667E+02 0.  0.
         -6    2    1    2    0  502  0.11559365062E+03  0.11446311478E+03  0.47236027229E+03  0.52896988970E+03  0.17384251683E+03 0.  0.
        -24    2    5    5    0    0  0.57973562236E+02  0.86134289686E+02  0.14574865340E+03  0.19607375498E+03  0.80138615192E+02 0.  0.
          5    1    3    3  501    0 -0.62213017981E+02 -0.38250667662E+02  0.46783988345E+02  0.86858532962E+02  0.47000000000E+01 0. -1.
        -13    1    4    4    0    0 -0.17629859244E+02  0.14325845934E+02 -0.24704266150E+02  0.33561027468E+02  0.00000000000E+00 0.  1.
         14    1    4    4    0    0 -0.35750773395E+02 -0.90538293056E+02 -0.72860831014E+02  0.12158947736E+03  0.00000000000E+00 0. -1.
         -5    1    5    5    0  502  0.57620088383E+02  0.28328825099E+02  0.32661161889E+03  0.33289613472E+03  0.47000000000E+01 0.  1.
         11    1    6    6    0    0  0.30567716894E+02  0.94849647748E+02  0.12822877896E+03  0.16239907866E+03  0.00000000000E+00 0. -1.
        -12    1    6    6    0    0  0.27405845342E+02 -0.87153580627E+01  0.17519874440E+02  0.33674676323E+02  0.00000000000E+00 0.  1.
</event>
<event>
12    1  0.8297444E-002  0.1744360E+03  0.7818608E-02  0.1175101E+00
         21   -1    0    0  501  502  0.00000000000E+00  0.00000000000E+00  0.53036840616E+02  0.53036840616E+02  0.00000000000E+00 0. -1.
         21   -1    0    0  502  503 -0.00000000000E+00 -0.00000000000E+00 -0.58530848775E+03  0.58530848775E+03  0.00000000000E+00 0. -1.
         -6    2    1    2    0  503 -0.21402925809E+02  0.10188293189E+02 -0.34858245439E+03  0.38979180624E+03  0.17281793355E+03 0.  0.
        -24    2    3    3    0    0 -0.12354513405E+02 -0.34168486110E+02 -0.91009417697E+02  0.12822851205E+03  0.82702586111E+02 0.  0.
          6    2    1    2  501    0  0.21402925809E+02 -0.10188293189E+02 -0.18368919274E+03  0.24855352212E+03  0.16575659045E+03 0.  0.
         24    2    5    5    0    0  0.23217342722E+02 -0.26379482207E+01 -0.20593353985E+03  0.22452851856E+03  0.86362196817E+02 0.  0.
          5    1    5    5  501    0 -0.18144169135E+01 -0.75503449688E+01  0.22244347105E+02  0.24025003559E+02  0.47000000000E+01 0. -1.
        -13    1    6    6    0    0  0.13091075736E+02 -0.42826141776E+02 -0.13659070798E+03  0.14374448229E+03  0.00000000000E+00 0.  1.
         14    1    6    6    0    0  0.10126266987E+02  0.40188193555E+02 -0.69342831870E+02  0.80784036270E+02  0.00000000000E+00 0. -1.
         -5    1    3    3    0  503 -0.90484124039E+01  0.44356779299E+02 -0.25757303669E+03  0.26156329419E+03  0.47000000000E+01 0.  1.
         11    1    4    4    0    0 -0.46023867597E+02 -0.97617966085E+01 -0.60558869226E+02  0.76686802668E+02  0.00000000000E+00 0. -1.
        -12    1    4    4    0    0  0.33669354192E+02 -0.24406689501E+02 -0.30450548472E+02  0.51541709385E+02  0.00000000000E+00 0.  1.
</event>
<event>
12    1  0.8297444E-002  0.2478195E+03  0.7818608E-02  0.1114892E+00
         21   -1    0    0  503  502  0.00000000000E+00  0.00000000000E+00  0.18095929434E+03  0.18095929434E+03  0.00000000000E+00 0. -1.
         21   -1    0    0  501  503 -0.00000000000E+00 -0.00000000000E+00 -0.11393435418E+04  0.11393435418E+04  0.00000000000E+00 0.  1.
          6    2    1    2  501    0  0.13447249561E+02 -0.17647203990E+03 -0.10333082779E+04  0.10626102245E+04  0.17346839081E+03 0.  0.
         24    2    3    3    0    0  0.62409762871E+02 -0.60434836094E+02 -0.47410311705E+03  0.48937862880E+03  0.84677794058E+02 0.  0.
         -6    2    1    2    0  502 -0.13447249561E+02  0.17647203990E+03  0.74924030402E+02  0.25769261169E+03  0.17166438886E+03 0.  0.
        -24    2    5    5    0    0 -0.36840895590E+01  0.76496482680E+02  0.10665451112E+03  0.15224430805E+03  0.77057512379E+02 0.  0.
          5    1    3    3  501    0 -0.48962513310E+02 -0.11603720380E+03 -0.55920516085E+03  0.57323159569E+03  0.47000000000E+01 0. -1.
        -11    1    4    4    0    0 -0.21235248324E+02 -0.90711683181E+01 -0.96904723570E+02  0.99618006988E+02  0.00000000000E+00 0.  1.
         12    1    4    4    0    0  0.83645011196E+02 -0.51363667776E+02 -0.37719839348E+03  0.38976062181E+03  0.00000000000E+00 0. -1.
         -5    1    5    5    0  502 -0.97631600024E+01  0.99975557217E+02 -0.31730480719E+02  0.10544830364E+03  0.47000000000E+01 0.  1.
         13    1    6    6    0    0  0.36267950429E+02  0.34774227980E+02  0.41486074342E+02  0.65159078602E+02  0.00000000000E+00 0. -1.
        -14    1    6    6    0    0 -0.39952039988E+02  0.41722254700E+02  0.65168436779E+02  0.87085229452E+02  0.00000000000E+00 0.  1.
</event>
<event>
12    1  0.8297444E-002  0.2449832E+03  0.7818608E-02  0.1116711E+00
         21   -1    0    0  501  502  0.00000000000E+00  0.00000000000E+00  0.26122929296E+03  0.26122929296E+03  0.00000000000E+00 0. -1.
         21   -1    0    0  502  503 -0.00000000000E+00 -0.00000000000E+00 -0.39864242946E+03  0.39864242946E+03  0.00000000000E+00 0. -1.
         -6    2    1    2    0  503 -0.30409433577E+02  0.16916993788E+03 -0.28407448470E+03  0.37434359382E+03  0.17289190798E+03 0.  0.
        -24    2    3    3    0    0  0.37725542140E+01  0.18417106696E+03 -0.26453215592E+03  0.33194742917E+03  0.79237744445E+02 0.  0.
          6    2    1    2  501    0  0.30409433577E+02 -0.16916993788E+03  0.14666134819E+03  0.28552812860E+03  0.17456677700E+03 0.  0.
         24    2    5    5    0    0  0.13632901571E+02 -0.14241240039E+03  0.33699382564E+02  0.16814025223E+03  0.81659954960E+02 0.  0.
          5    1    5    5  501    0  0.16776532006E+02 -0.26757537489E+02  0.11296196563E+03  0.11738787637E+03  0.47000000000E+01 0. -1.
        -13    1    6    6    0    0 -0.17548528208E+01 -0.87031114490E+02 -0.20179275278E+02  0.89357134849E+02  0.00000000000E+00 0.  1.
         14    1    6    6    0    0  0.15387754392E+02 -0.55381285905E+02  0.53878657842E+02  0.78783117383E+02  0.00000000000E+00 0. -1.
         -5    1    3    3    0  503 -0.34181987791E+02 -0.15001129080E+02 -0.19542328777E+02  0.42396164650E+02  0.47000000000E+01 0.  1.
         13    1    4    4    0    0 -0.34125442458E+02  0.50184932721E+02 -0.92389932258E+02  0.11053946299E+03  0.00000000000E+00 0. -1.
        -14    1    4    4    0    0  0.37897996672E+02  0.13398613424E+03 -0.17214222366E+03  0.22140796618E+03  0.00000000000E+00 0.  1.
</event>
<event>
12    1  0.8297444E-002  0.1756522E+03  0.7818608E-02  0.1172363E+00
         21   -1    0    0  503  502  0.00000000000E+00  0.00000000000E+00  0.39032697299E+03  0.39032697299E+03  0.00000000000E+00 0.  1.
         21   -1    0    0  501  503 -0.00000000000E+00 -0.00000000000E+00 -0.12288097195E+03  0.12288097195E+03  0.00000000000E+00 0.  1.
          6    2    1    2  501    0 -0.49325855996E+01  0.24964534312E+02 -0.20149591822E+02  0.17680411922E+03  0.17379911435E+03 0.  0.
         24    2    3    3    0    0  0.46730417624E+01 -0.34794195740E+02 -0.63722179086E+02  0.10207772324E+03  0.71602179428E+02 0.  0.
         -6    2    1    2    0  502  0.49325855996E+01 -0.24964534312E+02  0.28759559287E+03  0.33640382573E+03  0.17265210845E+03 0.  0.
        -24    2    5    5    0    0  0.11775145206E+02 -0.74415743598E+02  0.25331942782E+03  0.27566513779E+03  0.78384811937E+02 0.  0.
          5    1    3    3  501    0 -0.96056273620E+01  0.59758730052E+02  0.43572587264E+02  0.74726395974E+02  0.47000000000E+01 0. -1.
        -11    1    4    4    0    0 -0.20047979747E+02 -0.45954077104E+02 -0.28664043189E+02  0.57752281915E+02  0.00000000000E+00 0.  1.
         12    1    4    4    0    0  0.24721021509E+02  0.11159881365E+02 -0.35058135897E+02  0.44325441330E+02  0.00000000000E+00 0. -1.
         -5    1    5    5    0  502 -0.68425596066E+01  0.49451209286E+02  0.34276165043E+02  0.60738687934E+02  0.47000000000E+01 0.  1.
         11    1    6    6    0    0  0.87855948189E+00  0.27630967571E+01 -0.50343877453E+01  0.58096153420E+01  0.00000000000E+00 0. -1.
        -12    1    6    6    0    0  0.10896585724E+02 -0.77178840355E+02  0.25835381557E+03  0.26985552245E+03  0.00000000000E+00 0.  1.
</event>
<event>
12    1  0.8297444E-002  0.2148435E+03  0.7818608E-02  0.1137890E+00
         21   -1    0    0  503  502  0.00000000000E+00  0.00000000000E+00  0.36179753245E+03  0.36179753245E+03  0.00000000000E+00 0. -1.
         21   -1    0    0  501  503 -0.00000000000E+00 -0.00000000000E+00 -0.18696511054E+03  0.18696511054E+03  0.00000000000E+00 0. -1.
          6    2    1    2  501    0 -0.41218965478E+02 -0.12230725120E+03 -0.67708488081E+02  0.22475054568E+03  0.17108565578E+03 0.  0.
         24    2    3    3    0    0 -0.25749245327E+02 -0.15090879513E+02  0.15860265117E+02  0.87854639566E+02  0.81093349939E+02 0.  0.
         -6    2    1    2    0  502  0.41218965478E+02  0.12230725120E+03  0.24254090998E+03  0.32401209731E+03  0.17175470701E+03 0.  0.
        -24    2    5    5    0    0  0.33922293965E+01  0.11632139737E+03  0.24807082694E+03  0.28503309797E+03  0.78501955698E+02 0.  0.
          5    1    3    3  501    0 -0.15469720151E+02 -0.10721637168E+03 -0.83568753199E+02  0.13689590611E+03  0.47000000000E+01 0. -1.
        -13    1    4    4    0    0 -0.55342350445E+02 -0.12121427642E+02  0.96166936487E+01  0.57464646154E+02  0.00000000000E+00 0.  1.
         14    1    4    4    0    0  0.29593105118E+02 -0.29694518706E+01  0.62435714687E+01  0.30389993413E+02  0.00000000000E+00 0. -1.
         -5    1    5    5    0  502  0.37826736081E+02  0.59858538252E+01 -0.55299169612E+01  0.38978999348E+02  0.47000000000E+01 0.  1.
         11    1    6    6    0    0  0.39480163355E+02  0.79695011367E+02  0.15502901117E+03  0.17872876780E+03  0.00000000000E+00 0. -1.
        -12    1    6    6    0    0 -0.36087933959E+02  0.36626386005E+02  0.93041815771E+02  0.10630433016E+03  0.00000000000E+00 0.  1.
</event>
<event>
12    1  0.8297444E-002  0.2821526E+03  0.7818608E-02  0.1094633E+00
         21   -1    0    0  501  502  0.00000000000E+00  0.00000000000E+00  0.13807208479E+03  0.13807208479E+03  0.00000000000E+00 0. -1.
         21   -1    0    0  502  503 -0.00000000000E+00 -0.00000000000E+00 -0.67781141045E+03  0.67781141045E+03  0.00000000000E+00 0.  1.
         -6    2    1    2    0  503  0.16274412261E+03 -0.15338898748E+03 -0.11054201132E+03  0.30224894379E+03  0.17064892860E+03 0.  0.
        -24    2    3    3    0    0  0.10479405169E+03 -0.23360772705E+02 -0.24453519184E+02  0.13581918132E+03  0.79506958454E+02 0.  0.
          6    2    1    2  501    0 -0.16274412261E+03  0.15338898748E+03 -0.42919731433E+03  0.51363455144E+03  0.17203571398E+03 0.  0.
         24    2    5    5    0    0 -0.30940714575E+02  0.38947752009E+02 -0.23032409688E+03  0.24898085061E+03  0.80423996178E+02 0.  0.
          5    1    5    5  501    0 -0.13180340803E+03  0.11444123548E+03 -0.19887321745E+03  0.26465370083E+03  0.47000000000E+01 0. -1.
        -11    1    6    6    0    0  0.63923401231E+00 -0.11826400968E+02 -0.14096552300E+03  0.14146218949E+03  0.00000000000E+00 0.  1.
         12    1    6    6    0    0 -0.31579948587E+02  0.50774152977E+02 -0.89358573879E+02  0.10751866112E+03  0.00000000000E+00 0. -1.
         -5    1    3    3    0  503  0.57950070915E+02 -0.13002821478E+03 -0.86088492140E+02  0.16642976247E+03  0.47000000000E+01 0.  1.
         11    1    4    4    0    0  0.30771705754E+02 -0.20964635373E+02  0.26692528912E+02  0.45813806992E+02  0.00000000000E+00 0. -1.
        -12    1    4    4    0    0  0.74022345937E+02 -0.23961373311E+01 -0.51146048096E+02  0.90005374328E+02  0.00000000000E+00 0.  1.
</event>
<event>
12    1  0.8297444E-002  0.1814705E+03  0.7818608E-02  0.1166630E+00
         21   -1    0    0  503  502  0.00000000000E+00  0.00000000000E+00  0.47337660182E+03  0.47337660182E+03  0.00000000000E+00 0. -1.
         21   -1    0    0  501  503 -0.00000000000E+00 -0.00000000000E+00 -0.10864379513E+03  0.10864379513E+03  0.00000000000E+00 0. -1.
          6    2    1    2  501    0  0.54704785344E+02 -0.12879559336E+02  0.66518156291E+01  0.18058108542E+03  0.17148406682E+03 0.  0.
         24    2    3    3    0    0  0.64561360932E+01 -0.59085400578E+02 -0.29466368370E+02  0.10449215630E+03  0.80731515586E+02 0.  0.
         -6    2    1    2    0  502 -0.54704785344E+02  0.12879559336E+02  0.35808099106E+03  0.40143931152E+03  0.17254862528E+03 0.  0.
        -24    2    5    5    0    0  0.37507086255E+02  0.36970955063E+01  0.19069155741E+03  0.21005315893E+03  0.79615384656E+02 0.  0.
          5    1    3    3  501    0  0.48248649250E+02  0.46205841242E+02  0.36118183999E+02  0.76088929121E+02  0.47000000000E+01 0. -1.
        -11    1    4    4    0    0 -0.30740974747E+02 -0.49749763403E+02 -0.43371269975E+01  0.58641769735E+02  0.00000000000E+00 0.  1.
         12    1    4    4    0    0  0.37197110840E+02 -0.93356371744E+01 -0.25129241372E+02  0.45850386566E+02  0.00000000000E+00 0. -1.
         -5    1    5    5    0  502 -0.92211871598E+02  0.91824638295E+01  0.16738943365E+03  0.19138615259E+03  0.47000000000E+01 0.  1.
         13    1    6    6    0    0 -0.17006493860E+02  0.80961649344E+01  0.11577818628E+03  0.11730028618E+03  0.00000000000E+00 0. -1.
        -14    1    6    6    0    0  0.54513580114E+02 -0.43990694281E+01  0.74913371130E+02  0.92752872747E+02  0.00000000000E+00 0.  1.
</event>
<event>
12    1  0.8297444E-002  0.2115142E+03  0.7818608E-02  0.1140441E+00
         21   -1    0    0  501  502  0.00000000000E+00  0.00000000000E+00  0.79849138301E+03  0.79849138301E+03  0.00000000000E+00 0.  1.
         21   -1    0    0  502  503 -0.00000000000E+00 -0.00000000000E+00 -0.62882578764E+02  0.62882578764E+02  0.00000000000E+00 0.  1.
         -6    2    1    2    0  503  0.74419801108E+02 -0.98368680877E+02  0.22492646509E+03  0.30875586088E+03  0.17182422051E+03 0.  0.
        -24    2    3    3    0    0  0.10926457120E+03 -0.50525876951E+02  0.11753290312E+03  0.18604254032E+03  0.79411792133E+02 0.  0.
          6    2    1    2  501    0 -0.74419801108E+02  0.98368680877E+02  0.51068233915E+03  0.55261810089E+03  0.17139314379E+03 0.  0.
         24    2    5    5    0    0  0.11439506616E+02  0.27896491292E+02  0.11433228647E+03  0.14097067349E+03  0.76757947576E+02 0.  0.
          5    1    5    5  501    0 -0.85859307724E+02  0.70472189584E+02  0.39635005269E+03  0.41164742741E+03  0.47000000000E+01 0. -1.
        -13    1    6    6    0    0 -0.60786879713E+01  0.18421359308E+02  0.11895374329E+03  0.12052505951E+03  0.00000000000E+00 0.  1.
         14    1    6    6    0    0  0.17518194588E+02  0.94751319843E+01 -0.46214568247E+01  0.20445613977E+02  0.00000000000E+00 0. -1.
         -5    1    3    3    0  503 -0.34844770095E+02 -0.47842803926E+02  0.10739356197E+03  0.12271332056E+03  0.47000000000E+01 0.  1.
         13    1    4    4    0    0  0.95627811412E+01 -0.21179000244E+02  0.66130959979E+02  0.70094940633E+02  0.00000000000E+00 0. -1.
        -14    1    4    4    0    0  0.99701790062E+02 -0.29346876707E+02  0.51401943143E+02  0.11594759969E+03  0.00000000000E+00 0.  1.
</event>
<event>
12    1  0.8297444E-002  0.1750237E+03  0.7818608E-02  0.1173266E+00
         21   -1    0    0  503  502  0.00000000000E+00  0.00000000000E+00  0.15184980587E+03  0.15184980587E+03  0.00000000000E+00 0. -1.
         21   -1    0    0  501  503 -0.00000000000E+00 -0.00000000000E+00 -0.28394901563E+03  0.28394901563E+03  0.00000000000E+00 0. -1.
          6    2    1    2  501    0  0.29469255750E+02 -0.14019885340E+02 -0.18538890840E+03  0.25495557636E+03  0.17195436703E+03 0.  0.
         24    2    3    3    0    0 -0.27369610159E+02 -0.59874021773E+02 -0.11647835300E+03  0.15443685596E+03  0.77133272441E+02 0.  0.
         -6    2    1    2    0  502 -0.29469255750E+02  0.14019885340E+02  0.53289698645E+02  0.18084324514E+03  0.16970413405E+03 0.  0.
        -24    2    5    5    0    0 -0.80667168743E+02 -0.49266387176E+01  0.49472970758E+02  0.12591734524E+03  0.82922488589E+02 0.  0.
          5    1    3    3  501    0  0.56838865910E+02  0.45854136434E+02 -0.68910555400E+02  0.10051872040E+03  0.47000000000E+01 0. -1.
        -13    1    4    4    0    0 -0.70317263193E+01  0.88645001632E+01  0.57854151810E+01  0.12708090611E+02  0.00000000000E+00 0.  1.
         14    1    4    4    0    0 -0.20337883840E+02 -0.68738521936E+02 -0.12226376818E+03  0.14172876535E+03  0.00000000000E+00 0. -1.
         -5    1    5    5    0  502  0.51197912993E+02  0.18946524057E+02  0.38167278873E+01  0.54925899906E+02  0.47000000000E+01 0.  1.
         13    1    6    6    0    0 -0.67967333974E+02  0.32529856599E+02  0.24918738943E+02  0.79364309412E+02  0.00000000000E+00 0. -1.
        -14    1    6    6    0    0 -0.12699834769E+02 -0.37456495316E+02  0.24554231815E+02  0.46553035825E+02  0.00000000000E+00 0.  1.
</event>
<event>
12    1  0.8297444E-002  0.2973297E+03  0.7818608E-02  0.1086902E+00
         21   -1    0    0  501  502  0.00000000000E+00  0.00000000000E+00  0.12837217170E+04  0.12837217170E+04  0.00000000000E+00 0.  1.
         21   -1    0    0  502  503 -0.00000000000E+00 -0.00000000000E+00 -0.70259457656E+02  0.70259457656E+02  0.00000000000E+00 0.  1.
         -6    2    1    2    0  503 -0.76143684638E+01  0.24134600678E+03  0.49074617474E+03  0.57249316445E+03  0.16914710085E+03 0.  0.
        -24    2    3    3    0    0 -0.66618628223E+02  0.11548744427E+03  0.24183687943E+03  0.28736195304E+03  0.79475935945E+02 0.  0.
          6    2    1    2  501    0  0.76143684638E+01 -0.24134600678E+03  0.72271608462E+03  0.78148801023E+03  0.17349091492E+03 0.  0.
         24    2    5    5    0    0  0.33493874039E+02 -0.71193222002E+02  0.17323051553E+03  0.20565973754E+03  0.78082018927E+02 0.  0.
          5    1    5    5  501    0 -0.25879505575E+02 -0.17015278477E+03  0.54948556910E+03  0.57582827268E+03  0.47000000000E+01 0. -1.
        -11    1    6    6    0    0 -0.33383493295E+01 -0.73598395437E+02  0.12194650579E+03  0.14247392274E+03  0.00000000000E+00 0.  1.
         12    1    6    6    0    0  0.36832223368E+02  0.24051734342E+01  0.51284009733E+02  0.63185814799E+02  0.00000000000E+00 0. -1.
         -5    1    3    3    0  503  0.59004259759E+02  0.12585856250E+03  0.24890929531E+03  0.28513121140E+03  0.47000000000E+01 0.  1.
         11    1    4    4    0    0 -0.31096814740E+02  0.11263743203E+03  0.16021981302E+03  0.19830429009E+03  0.00000000000E+00 0. -1.
        -12    1    4    4    0    0 -0.35521813483E+02  0.28500122429E+01  0.81617066406E+02  0.89057662959E+02  0.00000000000E+00 0.  1.
</event>
<event>
12    1  0.8297444E-002  0.1902108E+03  0.7818608E-02  0.1158282E+00
         21   -1    0    0  503  502  0.00000000000E+00  0.00000000000E+00  0.79594818976E+02  0.79594818976E+02  0.00000000000E+00 0.  1.
         21   -1    0    0  501  503 -0.00000000000E+00 -0.00000000000E+00 -0.46100493524E+03  0.46100493524E+03  0.00000000000E+00 0.  1.
          6    2    1    2  501    0  0.43267041449E+02 -0.67472281264E+02 -0.15844201238E+03  0.24752138494E+03  0.17244830849E+03 0.  0.
         24    2    3    3    0    0  0.15031700442E+02  0.29864937420E+02 -0.55018351258E+02  0.10264104707E+03  0.79939346146E+02 0.  0.
         -6    2    1    2    0  502 -0.43267041449E+02  0.67472281264E+02 -0.22296810388E+03  0.29307836928E+03  0.17249814368E+03 0.  0.
        -24    2    5    5    0    0 -0.47610336954E+02  0.64736214123E+02 -0.24454281948E+03  0.27040881630E+03  0.82838492051E+02 0.  0.
          5    1    3    3  501    0  0.28235341007E+02 -0.97337218684E+02 -0.10342366112E+03  0.14488033788E+03  0.47000000000E+01 0. -1.
        -11    1    4    4    0    0  0.30049532907E+02 -0.17968377768E+02 -0.13422138510E+02  0.37496544237E+02  0.00000000000E+00 0.  1.
         12    1    4    4    0    0 -0.15017832465E+02  0.47833315188E+02 -0.41596212748E+02  0.65144502829E+02  0.00000000000E+00 0. -1.
         -5    1    5    5    0  502  0.43432955051E+01  0.27360671412E+01  0.21574715599E+02  0.22669552982E+02  0.47000000000E+01 0.  1.
         11    1    6    6    0    0  0.16042160379E+02  0.25009173071E+02 -0.26484749206E+02  0.39802658050E+02  0.00000000000E+00 0. -1.
        -12    1    6    6    0    0 -0.63652497333E+02  0.39727041052E+02 -0.21805807028E+03  0.23060615825E+03  0.00000000000E+00 0.  1.
</event>
<event>
12    1  0.8297444E-002  0.2515821E+03  0.7818608E-02  0.1112499E+00
         21   -1    0    0  503  502  0.00000000000E+00  0.00000000000E+00  0.62376663307E+02  0.62376663307E+02  0.00000000000E+00 0.  1.
         21   -1    0    0  501  503 -0.00000000000E+00 -0.00000000000E+00 -0.10228142620E+04  0.10228142620E+04  0.00000000000E+00 0. -1.
          6    2    1    2  501    0  0.73052077649E+02  0.16690130468E+03 -0.42022728372E+03  0.48978005211E+03  0.17349604581E+03 0.  0.
         24    2    3    3    0    0  0.54915794669E+02  0.19317170368E+02 -0.11846818606E+03  0.15334187876E+03  0.78039240775E+02 0.  0.
         -6    2    1    2    0  502 -0.73052077649E+02 -0.16690130468E+03 -0.54021031496E+03  0.59541087318E+03  0.17173896459E+03 0.  0.
        -24    2    5    5    0    0 -0.46509046710E+01 -0.12164154492E+03 -0.45251936281E+03  0.47524865196E+03  0.79178350019E+02 0.  0.
          5    1    3    3  501    0  0.18136282980E+02  0.14758413432E+03 -0.30175909767E+03  0.33643817335E+03  0.47000000000E+01 0. -1.
        -11    1    4    4    0    0  0.71747894952E+02  0.26959173283E+02 -0.80727043732E+02  0.11131672401E+03  0.00000000000E+00 0.  1.
         12    1    4    4    0    0 -0.16832100283E+02 -0.76420029145E+01 -0.37741142323E+02  0.42025154757E+02  0.00000000000E+00 0. -1.
         -5    1    5    5    0  502 -0.68401172978E+02 -0.45259759770E+02 -0.87690952152E+02  0.12016222122E+03  0.47000000000E+01 0.  1.
         11    1    6    6    0    0  0.42207109800E+00  0.10882045547E+02 -0.19025004872E+02  0.21921402092E+02  0.00000000000E+00 0. -1.
        -12    1    6    6    0    0 -0.50729757690E+01 -0.13252359046E+03 -0.43349435794E+03  0.45332724987E+03  0.00000000000E+00 0.  1.
</event>
<event>
12    1  0.8297444E-002  0.1779270E+03  0.7818608E-02  0.1171059E+00
         21   -1    0    0  501  502  0.00000000000E+00  0.00000000000E+00  0.17371997218E+03  0.17371997218E+03  0.00000000000E+00 0. -1.
         21   -1    0    0  502  503 -0.00000000000E+00 -0.00000000000E+00 -0.17880166165E+03  0.17880166165E+03  0.00000000000E+00 0. -1.
         -6    2    1    2    0  503 -0.13276592540E+02  0.37213810188E+02 -0.19172790716E+02  0.17403748140E+03  0.16840520612E+03 0.  0.
        -24    2    3    3    0    0 -0.33698292012E+02  0.55984687873E+02  0.40457856601E+02  0.10810345560E+03  0.76024067187E+02 0.  0.
          6    2    1    2  501    0  0.13276592540E+02 -0.37213810188E+02  0.14091101245E+02  0.17848415242E+03  0.17348457555E+03 0.  0.
         24    2    5    5    0    0 -0.25745222538E+02  0.38001729465E+02  0.14919565430E+01  0.92688418819E+02  0.80510677074E+02 0.  0.
          5    1    5    5  501    0  0.39021815078E+02 -0.75215539653E+02  0.12599144702E+02  0.85795733603E+02  0.47000000000E+01 0. -1.
        -13    1    6    6    0    0 -0.25847669924E+02  0.61635735956E+01 -0.35203323928E+02  0.44106299953E+02  0.00000000000E+00 0.  1.
         14    1    6    6    0    0  0.10244738525E+00  0.31838155869E+02  0.36695280471E+02  0.48582118866E+02  0.00000000000E+00 0. -1.
         -5    1    3    3    0  503  0.20421699472E+02 -0.18770877685E+02 -0.59630647317E+02  0.65934025797E+02  0.47000000000E+01 0.  1.
         11    1    4    4    0    0 -0.91162700720E+01 -0.73230648593E+01 -0.15979530827E+02  0.19800986450E+02  0.00000000000E+00 0. -1.
        -12    1    4    4    0    0 -0.24582021940E+02  0.63307752732E+02  0.56437387428E+02  0.88302469152E+02  0.00000000000E+00 0.  1.
</event>
<event>
12    1  0.8297444E-002  0.1859242E+03  0.7818608E-02  0.1162901E+00
         21   -1    0    0  501  502  0.00000000000E+00  0.00000000000E+00  0.25418791759E+02  0.25418791759E+02  0.00000000000E+00 0. -1.
         21   -1    0    0  502  503 -0.00000000000E+00 -0.00000000000E+00 -0.13727254056E+04  0.13727254056E+04  0.00000000000E+00 0. -1.
         -6    2    1    2    0  503  0.15683696496E+02 -0.62730658329E+02 -0.55673289014E+03  0.58600220252E+03  0.17107295686E+03 0.  0.
        -24    2    3    3    0    0  0.35162261421E+02 -0.62163191222E+02 -0.55548602071E+03  0.56591785056E+03  0.81225903565E+02 0.  0.
          6    2    1    2  501    0 -0.15683696496E+02  0.62730658329E+02 -0.79057372369E+03  0.81214199482E+03  0.17431779409E+03 0.  0.
         24    2    5    5    0    0 -0.50953877860E+02  0.84424235162E+02 -0.71190101245E+03  0.72311344624E+03  0.79788817831E+02 0.  0.
          5    1    5    5  501    0  0.35270181363E+02 -0.21693576833E+02 -0.78672711234E+02  0.89028548579E+02  0.47000000000E+01 0. -1.
        -11    1    6    6    0    0 -0.43984884431E+02  0.22645442339E+02 -0.15381424190E+03  0.16157446311E+03  0.00000000000E+00 0.  1.
         12    1    6    6    0    0 -0.69689934283E+01  0.61778792823E+02 -0.55808677055E+03  0.56153898313E+03  0.00000000000E+00 0. -1.
         -5    1    3    3    0  503 -0.19478564924E+02 -0.56746710661E+00 -0.12468694317E+01  0.20084351964E+02  0.47000000000E+01 0.  1.
         13    1    4    4    0    0 -0.16488405791E+02  0.97289556451E+01 -0.12106009311E+03  0.12256453911E+03  0.00000000000E+00 0. -1.
        -14    1    4    4    0    0  0.51650667212E+02 -0.71892146868E+02 -0.43442592760E+03  0.44335331145E+03  0.00000000000E+00 0.  1.
</event>
<event>
12    1  0.8297444E-002  0.1749995E+03  0.7818608E-02  0.1172836E+00
         21   -1    0    0  501  502  0.00000000000E+00  0.00000000000E+00  0.25757956368E+03  0.25757956368E+03  0.00000000000E+00 0.  1.
         21   -1    0    0  502  503 -0.00000000000E+00 -0.00000000000E+00 -0.13677291408E+03  0.13677291408E+03  0.00000000000E+00 0.  1.
         -6    2    1    2    0  503 -0.40583441596E+01 -0.37427439688E+02 -0.11500618333E+02  0.17496690866E+03  0.17048129371E+03 0.  0.
        -24    2    3    3    0    0  0.86128196054E+00  0.44097858046E+02 -0.24208787855E+02  0.92177027245E+02  0.77234552187E+02 0.  0.
          6    2    1    2  501    0  0.40583441596E+01  0.37427439688E+02  0.13230726794E+03  0.21938556910E+03  0.17090211052E+03 0.  0.
         24    2    5    5    0    0  0.31481340694E+02  0.50880450816E+01  0.81699217045E+01  0.88122368193E+02  0.81742529570E+02 0.  0.
          5    1    5    5  501    0 -0.27422996535E+02  0.32339394607E+02  0.12413734623E+03  0.13126320090E+03  0.47000000000E+01 0. -1.
        -11    1    6    6    0    0  0.37229322752E+02  0.38570458650E+02  0.76192641031E+01  0.54145691782E+02  0.00000000000E+00 0.  1.
         12    1    6    6    0    0 -0.57479820577E+01 -0.33482413569E+02  0.55065760141E+00  0.33976676411E+02  0.00000000000E+00 0. -1.
         -5    1    3    3    0  503 -0.49196261202E+01 -0.81525297734E+02  0.12708169522E+02  0.82789881413E+02  0.47000000000E+01 0.  1.
         13    1    4    4    0    0  0.14942586632E+02 -0.12261747733E+02 -0.27929433286E+02  0.33965932880E+02  0.00000000000E+00 0. -1.
        -14    1    4    4    0    0 -0.14081304671E+02  0.56359605779E+02  0.37206454310E+01  0.58211094366E+02  0.00000000000E+00 0.  1.
</event>
<event>
12    1  0.8297444E-002  0.2008051E+03  0.7818608E-02  0.1149283E+00
         21   -1    0    0  503  502  0.00000000000E+00  0.00000000000E+00  0.58983510245E+03  0.58983510245E+03  0.00000000000E+00 0.  1.
         21   -1    0    0  501  503 -0.00000000000E+00 -0.00000000000E+00 -0.92506051967E+02  0.92506051967E+02  0.00000000000E+00 0.  1.
          6    2    1    2  501    0  0.82461982144E+02 -0.61201723125E+02  0.42472726689E+03  0.46980414166E+03  0.17256028184E+03 0.  0.
         24    2    3    3    0    0  0.73580948476E+02 -0.33114935622E+02  0.42548901336E+03  0.43996439219E+03  0.77569394512E+02 0.  0.
         -6    2    1    2    0  502 -0.82461982144E+02  0.61201723125E+02  0.72601783586E+02  0.21253701275E+03  0.17133398202E+03 0.  0.
        -24    2    5    5    0    0  0.13119953515E+02  0.66064961640E+01  0.53485257225E+02  0.10071538331E+03  0.84066263876E+02 0.  0.
          5    1    3    3  501    0  0.88810336684E+01 -0.28086787503E+02 -0.76174646268E+00  0.29839749478E+02  0.47000000000E+01 0. -1.
        -13    1    4    4    0    0  0.82859910043E+02 -0.60367331842E+01  0.30388792981E+03  0.31503980816E+03  0.00000000000E+00 0.  1.
         14    1    4    4    0    0 -0.92789615674E+01 -0.27078202437E+02  0.12160108355E+03  0.12492458403E+03  0.00000000000E+00 0. -1.
         -5    1    5    5    0  502 -0.95581935659E+02  0.54595226961E+02  0.19116526361E+02  0.11182162944E+03  0.47000000000E+01 0.  1.
         13    1    6    6    0    0  0.15089492615E+02 -0.28221157886E+02  0.57293080616E+02  0.65624870486E+02  0.00000000000E+00 0. -1.
        -14    1    6    6    0    0 -0.19695391001E+01  0.34827654050E+02 -0.38078233915E+01  0.35090512819E+02  0.00000000000E+00 0.  1.
</event>
<event>
12    1  0.8297444E-002  0.1807647E+03  0.7818608E-02  0.1167194E+00
         21   -1    0    0  501  502  0.00000000000E+00  0.00000000000E+00  0.11678015214E+03  0.11678015214E+03  0.00000000000E+00 0.  1.
         21   -1    0    0  502  503 -0.00000000000E+00 -0.00000000000E+00 -0.29844131147E+03  0.29844131147E+03  0.00000000000E+00 0.  1.
         -6    2    1    2    0  503  0.26247918113E+02 -0.46224500984E+02 -0.14397621007E+03  0.23109529535E+03  0.17277218748E+03 0.  0.
        -24    2    3    3    0    0  0.59316163867E+02 -0.28552202605E+01 -0.14579408492E+03  0.17632488311E+03  0.79422853301E+02 0.  0.
          6    2    1    2  501    0 -0.26247918113E+02  0.46224500984E+02 -0.37684949259E+02  0.18412616826E+03  0.17221101225E+03 0.  0.
         24    2    5    5    0    0  0.14508857989E+02  0.13841515453E+02  0.38377203428E+02  0.91836875159E+02  0.80988316354E+02 0.  0.
          5    1    5    5  501    0 -0.40756776102E+02  0.32382985532E+02 -0.76062152686E+02  0.92289293103E+02  0.47000000000E+01 0. -1.
        -11    1    6    6    0    0  0.44032411324E+02  0.26376193402E+02  0.24844951519E+02  0.57024805492E+02  0.00000000000E+00 0.  1.
         12    1    6    6    0    0 -0.29523553335E+02 -0.12534677949E+02  0.13532251909E+02  0.34812069667E+02  0.00000000000E+00 0. -1.
         -5    1    3    3    0  503 -0.33068245755E+02 -0.43369280724E+02  0.18178748483E+01  0.54770412238E+02  0.47000000000E+01 0.  1.
         11    1    4    4    0    0 -0.19115741280E+02  0.95969893855E+00 -0.42160863765E+02  0.46301954820E+02  0.00000000000E+00 0. -1.
        -12    1    4    4    0    0  0.78431905147E+02 -0.38149191990E+01 -0.10363322116E+03  0.13002292829E+03  0.00000000000E+00 0.  1.
</event>
<event>
12    1  0.8297444E-002  0.2120986E+03  0.7818608E-02  0.1140488E+00
         21   -1    0    0  503  502  0.00000000000E+00  0.00000000000E+00  0.13316657015E+03  0.13316657015E+03  0.00000000000E+00 0. -1.
         21   -1    0    0  501  503 -0.00000000000E+00 -0.00000000000E+00 -0.38728185469E+03  0.38728185469E+03  0.00000000000E+00 0. -1.
          6    2    1    2  501    0 -0.12210229317E+03  0.25136785920E+02 -0.22355022988E+03  0.30615878815E+03  0.16798116050E+03 0.  0.
         24    2    3    3    0    0 -0.25767312082E+01  0.75095308419E+01 -0.68168075666E+02  0.10927612276E+03  0.85037355727E+02 0.  0.
         -6    2    1    2    0  502  0.12210229317E+03 -0.25136785920E+02 -0.30565054661E+02  0.21428963669E+03  0.17159544814E+03 0.  0.
        -24    2    5    5    0    0  0.10320710057E+03 -0.62998685837E+02  0.24068139756E+02  0.14502617084E+03  0.76372605382E+02 0.  0.
          5    1    3    3  501    0 -0.11952556196E+03  0.17627255078E+02 -0.15538215421E+03  0.19688266539E+03  0.47000000000E+01 0. -1.
        -13    1    4    4    0    0  0.12332265186E+02  0.39962516593E+02 -0.59149273882E+02  0.72441176812E+02  0.00000000000E+00 0.  1.
         14    1    4    4    0    0 -0.14908996394E+02 -0.32452985751E+02 -0.90188017833E+01  0.36834945952E+02  0.00000000000E+00 0. -1.
         -5    1    5    5    0  502  0.18895192595E+02  0.37861899917E+02 -0.54633194417E+02  0.69263465844E+02  0.47000000000E+01 0.  1.
         11    1    6    6    0    0  0.94490171647E+02 -0.24027066949E+02 -0.16780138216E+01  0.97511579899E+02  0.00000000000E+00 0. -1.
        -12    1    6    6    0    0  0.87169289246E+01 -0.38971618888E+02  0.25746153577E+02  0.47514590945E+02  0.00000000000E+00 0.  1.
</event>
<event>
12    1  0.8297444E-002  0.1775893E+03  0.7818608E-02  0.1170467E+00
         21   -1    0    0  501  502  0.00000000000E+00  0.00000000000E+00  0.11745100294E+03  0.11745100294E+03  0.00000000000E+00 0.  1.
         21   -1    0    0  502  503 -0.00000000000E+00 -0.00000000000E+00 -0.27217807809E+03  0.27217807809E+03  0.00000000000E+00 0.  1.
         -6    2    1    2    0  503  0.10129682413E+01 -0.39594073863E+02 -0.10492538298E+03  0.20518894693E+03  0.17182680570E+03 0.  0.
        -24    2    3    3    0    0 -0.35578224631E+02  0.15905984708E+02 -0.12303851474E+02  0.91083688523E+02  0.81400510665E+02 0.  0.
          6    2    1    2  501    0 -0.10129682413E+01  0.39594073863E+02 -0.49801692173E+02  0.18444013410E+03  0.17311625497E+03 0.  0.
         24    2    5    5    0    0 -0.61154217726E+01 -0.44199324380E+02 -0.85375600165E+01  0.90780178814E+02  0.78594988870E+02 0.  0.
          5    1    5    5  501    0  0.51024535313E+01  0.83793398243E+02 -0.41264132157E+02  0.93659955284E+02  0.47000000000E+01 0. -1.
        -13    1    6    6    0    0  0.34872897989E+02 -0.29410861699E+02  0.29571397772E+01  0.45715013679E+02  0.00000000000E+00 0.  1.
         14    1    6    6    0    0 -0.40988319761E+02 -0.14788462681E+02 -0.11494699794E+02  0.45065165135E+02  0.00000000000E+00 0. -1.
         -5    1    3    3    0  503  0.36591192872E+02 -0.55500058571E+02 -0.92621531509E+02  0.11410525841E+03  0.47000000000E+01 0.  1.
         13    1    4    4    0    0  0.16527484311E+02  0.24987615513E+02  0.12749374291E+02  0.32558949791E+02  0.00000000000E+00 0. -1.
        -14    1    4    4    0    0 -0.52105708942E+02 -0.90816308048E+01 -0.25053225765E+02  0.58524738732E+02  0.00000000000E+00 0.  1.
</event>
<event>
12    1  0.8297444E-002  0.2023669E+03  0.7818608E-02  0.1147810E+00
         21   -1    0    0  503  502  0.00000000000E+00  0.00000000000E+00  0.11076428355E+04  0.11076428355E+04  0.00000000000E+00 0. -1.
         21   -1    0    0  501  503 -0.00000000000E+00 -0.00000000000E+00 -0.37996694135E+02  0.37996694135E+02  0.00000000000E+00 0. -1.
          6    2    1    2  501    0 -0.73426501354E+02  0.78530171481E+02  0.63129764488E+03  0.66293973376E+03  0.17144659586E+03 0.  0.
         24    2    3    3    0    0  0.95699890582E+01  0.48149530254E+02  0.18542306079E+03  0.20836560832E+03  0.81391358901E+02 0.  0.
         -6    2    1    2    0  502  0.73426501354E+02 -0.78530171481E+02  0.43834849647E+03  0.48269979586E+03  0.17114686568E+03 0.  0.
        -24    2    5    5    0    0 -0.65492391299E+01  0.75569027115E+01  0.23361553249E+03  0.24659647113E+03  0.78317324011E+02 0.  0.
          5    1    3    3  501    0 -0.82996490412E+02  0.30380641227E+02  0.44587458409E+03  0.45457412544E+03  0.47000000000E+01 0. -1.
        -11    1    4    4    0    0 -0.32868623763E+02  0.36333085661E+02  0.76184171275E+02  0.90578515635E+02  0.00000000000E+00 0.  1.
         12    1    4    4    0    0  0.42438612821E+02  0.11816444593E+02  0.10923888951E+03  0.11778709268E+03  0.00000000000E+00 0. -1.
         -5    1    5    5    0  502  0.79975740484E+02 -0.86087074193E+02  0.20473296398E+03  0.23610332473E+03  0.47000000000E+01 0.  1.
         11    1    6    6    0    0  0.15796021518E+01 -0.28741585828E+02  0.39081365077E+02  0.48537892364E+02  0.00000000000E+00 0. -1.
        -12    1    6    6    0    0 -0.81288412818E+01  0.36298488539E+02  0.19453416741E+03  0.19805857876E+03  0.00000000000E+00 0.  1.
</event>
<event>
12    1  0.8297444E-002  0.2669128E+03  0.7818608E-02  0.1103945E+00
         21   -1    0    0  501  502  0.00000000000E+00  0.00000000000E+00  0.18640566141E+03  0.18640566141E+03  0.00000000000E+00 0.  1.
         21   -1    0    0  502  503 -0.00000000000E+00 -0.00000000000E+00 -0.49407980159E+03  0.49407980159E+03  0.00000000000E+00 0. -1.
         -6    2    1    2    0  503 -0.11291613111E+03 -0.18061530860E+03 -0.32050699579E+03  0.41326430849E+03  0.15063436514E+03 0.  0.
        -24    2    3    3    0    0 -0.36051494885E+02 -0.54631729273E+02 -0.75232529648E+02  0.12697479017E+03  0.78602338992E+02 0.  0.
          6    2    1    2  501    0  0.11291613111E+03  0.18061530860E+03  0.12832855601E+02  0.26722115451E+03  0.16084315611E+03 0.  0.
         24    2    5    5    0    0  0.13488656944E+03  0.10863596686E+03  0.20675457811E+02  0.19141005896E+03  0.78830046336E+02 0.  0.
          5    1    5    5  501    0 -0.21970438335E+02  0.71979341743E+02 -0.78426022103E+01  0.75811095545E+02  0.47000000000E+01 0. -1.
        -13    1    6    6    0    0  0.50931289535E+02  0.11434222968E+02  0.33978157310E+02  0.62283648598E+02  0.00000000000E+00 0.  1.
         14    1    6    6    0    0  0.83955279907E+02  0.97201743890E+02 -0.13302699499E+02  0.12912641036E+03  0.00000000000E+00 0. -1.
         -5    1    3    3    0  503 -0.76864636222E+02 -0.12598357933E+03 -0.24527446614E+03  0.28628951832E+03  0.47000000000E+01 0.  1.
         11    1    4    4    0    0 -0.27227688596E+02 -0.64945535442E+02 -0.84903882097E+02  0.11030838044E+03  0.00000000000E+00 0. -1.
        -12    1    4    4    0    0 -0.88238062884E+01  0.10313806169E+02  0.96713524494E+01  0.16666409731E+02  0.00000000000E+00 0.  1.
</event>
<event>
12    1  0.8297444E-002  0.3669400E+03  0.7818608E-02  0.1055882E+00
         21   -1    0    0  501  502  0.00000000000E+00  0.00000000000E+00  0.13222079578E+03  0.13222079578E+03  0.00000000000E+00 0. -1.
         21   -1    0    0  502  503 -0.00000000000E+00 -0.00000000000E+00 -0.14762379050E+04  0.14762379050E+04  0.00000000000E+00 0.  1.
         -6    2    1    2    0  503  0.81016189240E+02 -0.31355884028E+03 -0.11201705630E+04  0.11787395986E+04  0.17251719237E+03 0.  0.
        -24    2    3    3    0    0  0.10773058489E+03 -0.15375373435E+03 -0.57069260031E+03  0.60585265304E+03  0.78238758926E+02 0.  0.
          6    2    1    2  501    0 -0.81016189240E+02  0.31355884028E+03 -0.22384654616E+03  0.42971910221E+03  0.17224535215E+03 0.  0.
         24    2    5    5    0    0  0.21833648315E+02  0.18044974409E+03 -0.11357506472E+03  0.22852762576E+03  0.79289104371E+02 0.  0.
          5    1    5    5  501    0 -0.10284983755E+03  0.13310909619E+03 -0.11027148145E+03  0.20119147644E+03  0.47000000000E+01 0. -1.
        -11    1    6    6    0    0 -0.14733553165E+02  0.22126401524E+01 -0.18482507259E+01  0.15012974258E+02  0.00000000000E+00 0.  1.
         12    1    6    6    0    0  0.36567201480E+02  0.17823710393E+03 -0.11172681399E+03  0.21351465151E+03  0.00000000000E+00 0. -1.
         -5    1    3    3    0  503 -0.26714395653E+02 -0.15980510592E+03 -0.54947796274E+03  0.57288694552E+03  0.47000000000E+01 0.  1.
         13    1    4    4    0    0  0.61158296868E+02 -0.61255854772E+02 -0.15580425669E+03  0.17823463026E+03  0.00000000000E+00 0. -1.
        -14    1    4    4    0    0  0.46572288025E+02 -0.92497879582E+02 -0.41488834361E+03  0.42761802278E+03  0.00000000000E+00 0.  1.
</event>
<event>
12    1  0.8297444E-002  0.2803902E+03  0.7818608E-02  0.1095594E+00
         21   -1    0    0  501  502  0.00000000000E+00  0.00000000000E+00  0.65185265589E+03  0.65185265589E+03  0.00000000000E+00 0. -1.
         21   -1    0    0  502  503 -0.00000000000E+00 -0.00000000000E+00 -0.12442470618E+03  0.12442470618E+03  0.00000000000E+00 0.  1.
         -6    2    1    2    0  503  0.39346139034E+02 -0.21817547466E+03  0.19210205703E+03  0.33917084363E+03  0.17024982952E+03 0.  0.
        -24    2    3    3    0    0 -0.41499874437E+02 -0.10128055282E+03  0.11188697170E+03  0.17590097329E+03  0.80264986200E+02 0.  0.
          6    2    1    2  501    0 -0.39346139034E+02  0.21817547466E+03  0.33532589268E+03  0.43710651844E+03  0.17166827826E+03 0.  0.
         24    2    5    5    0    0 -0.83448513292E+02  0.93442848308E+02  0.20017919676E+03  0.24792415428E+03  0.75494736159E+02 0.  0.
          5    1    5    5  501    0  0.44102374259E+02  0.12473262635E+03  0.13514669592E+03  0.18918236416E+03  0.47000000000E+01 0. -1.
        -11    1    6    6    0    0 -0.34332160675E+02  0.73108578425E+02  0.68447211767E+02  0.10587059221E+03  0.00000000000E+00 0.  1.
         12    1    6    6    0    0 -0.49116352617E+02  0.20334269883E+02  0.13173198499E+03  0.14205356207E+03  0.00000000000E+00 0. -1.
         -5    1    3    3    0  503  0.80846013471E+02 -0.11689492184E+03  0.80215085331E+02  0.16326987034E+03  0.47000000000E+01 0.  1.
         13    1    4    4    0    0  0.68027660854E+01 -0.13637459991E+02  0.62451498120E+02  0.64284115914E+02  0.00000000000E+00 0. -1.
        -14    1    4    4    0    0 -0.48302640523E+02 -0.87643092829E+02  0.49435473584E+02  0.11161685738E+03  0.00000000000E+00 0.  1.
</event>
<event>
12    1  0.8297444E-002  0.1756510E+03  0.7818608E-02  0.1172288E+00
         21   -1    0    0  503  502  0.00000000000E+00  0.00000000000E+00  0.11702331502E+03  0.11702331502E+03  0.00000000000E+00 0.  1.
         21   -1    0    0  501  503 -0.00000000000E+00 -0.00000000000E+00 -0.30915033830E+03  0.30915033830E+03  0.00000000000E+00 0.  1.
          6    2    1    2  501    0  0.15656784960E+02 -0.29063241686E+02 -0.17873226643E+03  0.25001261749E+03  0.17167200968E+03 0.  0.
         24    2    3    3    0    0 -0.29470703440E+01  0.25490934794E+02 -0.17234992747E+03  0.19183112684E+03  0.80225997944E+02 0.  0.
         -6    2    1    2    0  502 -0.15656784960E+02  0.29063241686E+02 -0.13394756848E+02  0.17616103583E+03  0.17252096713E+03 0.  0.
        -24    2    5    5    0    0 -0.25723032386E+02 -0.36483203364E+02 -0.45693185889E+02  0.10224930256E+03  0.79839552319E+02 0.  0.
          5    1    3    3  501    0  0.18603855304E+02 -0.54554176480E+02 -0.63823389606E+01  0.58181490649E+02  0.47000000000E+01 0. -1.
        -13    1    4    4    0    0 -0.41062246871E+01 -0.25565111665E+02 -0.25445279296E+02  0.36302868400E+02  0.00000000000E+00 0.  1.
         14    1    4    4    0    0  0.11591543431E+01  0.51056046459E+02 -0.14690464817E+03  0.15552825844E+03  0.00000000000E+00 0. -1.
         -5    1    5    5    0  502  0.10066247425E+02  0.65546445050E+02  0.32298429041E+02  0.73911733266E+02  0.47000000000E+01 0.  1.
         11    1    6    6    0    0  0.20756650568E+02  0.11786899172E+02 -0.17260095782E+02  0.29456415962E+02  0.00000000000E+00 0. -1.
        -12    1    6    6    0    0 -0.46479682954E+02 -0.48270102536E+02 -0.28433090106E+02  0.72792886598E+02  0.00000000000E+00 0.  1.
</event>
<event>
12    1  0.8297444E-002  0.2242272E+03  0.7818608E-02  0.1130788E+00
         21   -1    0    0  501  502  0.00000000000E+00  0.00000000000E+00  0.16882175444E+03  0.16882175444E+03  0.00000000000E+00 0. -1.
         21   -1    0    0  502  503 -0.00000000000E+00 -0.00000000000E+00 -0.17898785726E+04  0.17898785726E+04  0.00000000000E+00 0. -1.
         -6    2    1    2    0  503 -0.11071920892E+03  0.89326778391E+02 -0.17047073065E+04  0.17193778729E+04  0.17319137474E+03 0.  0.
        -24    2    3    3    0    0 -0.29028453735E+02  0.77976615348E+02 -0.54854124561E+03  0.56026430809E+03  0.77946091082E+02 0.  0.
          6    2    1    2  501    0  0.11071920892E+03 -0.89326778391E+02  0.83650488365E+02  0.23932245416E+03  0.17331998240E+03 0.  0.
         24    2    5    5    0    0  0.86887405014E+02 -0.12219795350E+03  0.29515390782E+02  0.17149054558E+03  0.77820870867E+02 0.  0.
          5    1    5    5  501    0  0.23831803908E+02  0.32871175106E+02  0.54135097583E+02  0.67831908573E+02  0.47000000000E+01 0. -1.
        -13    1    6    6    0    0  0.18196929360E+02  0.60125313838E+01 -0.87823768150E+01  0.21081008380E+02  0.00000000000E+00 0.  1.
         14    1    6    6    0    0  0.68690475654E+02 -0.12821048488E+03  0.38297767597E+02  0.15040953720E+03  0.00000000000E+00 0. -1.
         -5    1    3    3    0  503 -0.81690755188E+02  0.11350163043E+02 -0.11561660609E+04  0.11591135648E+04  0.47000000000E+01 0.  1.
         11    1    4    4    0    0 -0.27510485638E+02  0.20252090696E+02 -0.39072547121E+03  0.39221597092E+03  0.00000000000E+00 0. -1.
        -12    1    4    4    0    0 -0.15179680965E+01  0.57724524653E+02 -0.15781577441E+03  0.16804833717E+03  0.00000000000E+00 0.  1.
</event>
<event>
12    1  0.8297444E-002  0.1911730E+03  0.7818608E-02  0.1157623E+00
         21   -1    0    0  501  502  0.00000000000E+00  0.00000000000E+00  0.24471420810E+03  0.24471420810E+03  0.00000000000E+00 0.  1.
         21   -1    0    0  502  503 -0.00000000000E+00 -0.00000000000E+00 -0.20914805236E+03  0.20914805236E+03  0.00000000000E+00 0. -1.
         -6    2    1    2    0  503  0.76111177418E+01 -0.77116393370E+02  0.13985453098E+03  0.23609362500E+03  0.17371252888E+03 0.  0.
        -24    2    3    3    0    0  0.60301632773E+02 -0.73952102820E+02  0.56010343337E+02  0.13690571792E+03  0.80627641741E+02 0.  0.
          6    2    1    2  501    0 -0.76111177418E+01  0.77116393370E+02 -0.10428837523E+03  0.21776863546E+03  0.17476340047E+03 0.  0.
         24    2    5    5    0    0 -0.61678425938E+02  0.68617849184E+02 -0.10767278813E+03  0.16273189029E+03  0.79847362884E+02 0.  0.
          5    1    5    5  501    0  0.54067308196E+02  0.84985441858E+01  0.33844128973E+01  0.55036745175E+02  0.47000000000E+01 0. -1.
        -11    1    6    6    0    0 -0.65682598374E+01  0.40641486174E+01  0.13045629059E+02  0.15160731474E+02  0.00000000000E+00 0.  1.
         12    1    6    6    0    0 -0.55110166100E+02  0.64553700567E+02 -0.12071841719E+03  0.14757115881E+03  0.00000000000E+00 0. -1.
         -5    1    3    3    0  503 -0.52690515031E+02 -0.31642905500E+01  0.83844187639E+02  0.99187907074E+02  0.47000000000E+01 0.  1.
         11    1    4    4    0    0  0.31668019710E+01 -0.66724604577E+02  0.23754546232E+02  0.70897672440E+02  0.00000000000E+00 0. -1.
        -12    1    4    4    0    0  0.57134830802E+02 -0.72274982428E+01  0.32255797105E+02  0.66008045483E+02  0.00000000000E+00 0.  1.
</event>
<event>
12    1  0.8297444E-002  0.1746067E+03  0.7818608E-02  0.1175165E+00
         21   -1    0    0  503  502  0.00000000000E+00  0.00000000000E+00  0.25479388443E+03  0.25479388443E+03  0.00000000000E+00 0.  1.
         21   -1    0    0  501  503 -0.00000000000E+00 -0.00000000000E+00 -0.11496628396E+03  0.11496628396E+03  0.00000000000E+00 0.  1.
          6    2    1    2  501    0 -0.28075639594E+02 -0.15838409641E+02  0.85539764585E+02  0.19443396267E+03  0.17160541296E+03 0.  0.
         24    2    3    3    0    0 -0.58716277243E+02  0.39389520483E+01  0.11138707690E+03  0.14948770293E+03  0.80475933493E+02 0.  0.
         -6    2    1    2    0  502  0.28075639594E+02  0.15838409641E+02  0.54287835880E+02  0.17532620571E+03  0.16356348164E+03 0.  0.
        -24    2    5    5    0    0  0.20275395717E+02 -0.24519724642E+02  0.86922529357E+02  0.12263146190E+03  0.80440293196E+02 0.  0.
          5    1    3    3  501    0  0.30640637649E+02 -0.19777361689E+02 -0.25847312313E+02  0.44946259742E+02  0.47000000000E+01 0. -1.
        -13    1    4    4    0    0  0.10692692180E+02 -0.82776252682E+01  0.61931697253E+02  0.63390755405E+02  0.00000000000E+00 0.  1.
         14    1    4    4    0    0 -0.69408969423E+02  0.12216577316E+02  0.49455379645E+02  0.86096947528E+02  0.00000000000E+00 0. -1.
         -5    1    5    5    0  502  0.78002438762E+01  0.40358134282E+02 -0.32634693476E+02  0.52694743813E+02  0.47000000000E+01 0.  1.
         13    1    6    6    0    0  0.13141477344E+02  0.27593656951E+02  0.16497074750E+02  0.34731279936E+02  0.00000000000E+00 0. -1.
        -14    1    6    6    0    0  0.71339183735E+01 -0.52113381592E+02  0.70425454607E+02  0.87900181962E+02  0.00000000000E+00 0.  1.
</event>
<event>
12    1  0.8297444E-002  0.1766653E+03  0.7818608E-02  0.1171593E+00
         21   -1    0    0  501  502  0.00000000000E+00  0.00000000000E+00  0.52570152351E+03  0.52570152351E+03  0.00000000000E+00 0.  1.
         21   -1    0    0  502  503 -0.00000000000E+00 -0.00000000000E+00 -0.80278370447E+02  0.80278370447E+02  0.00000000000E+00 0.  1.
         -6    2    1    2    0  503  0.17365963695E+02  0.31430919384E+02  0.64537723148E+02  0.18611762326E+03  0.17083668397E+03 0.  0.
        -24    2    3    3    0    0  0.36963734607E+02  0.35979350728E+02 -0.21742075013E+02  0.97398660108E+02  0.79705393859E+02 0.  0.
          6    2    1    2  501    0 -0.17365963695E+02 -0.31430919384E+02  0.38088542992E+03  0.41986227070E+03  0.17297727089E+03 0.  0.
         24    2    5    5    0    0  0.44226693038E+02  0.56635004066E+01  0.12658721985E+03  0.15555313165E+03  0.78640809515E+02 0.  0.
          5    1    5    5  501    0 -0.61592656734E+02 -0.37094419791E+02  0.25429821007E+03  0.26430913905E+03  0.47000000000E+01 0. -1.
        -11    1    6    6    0    0  0.35957213223E+02  0.22318012770E+01  0.13709424473E+03  0.14174884147E+03  0.00000000000E+00 0.  1.
         12    1    6    6    0    0  0.82694798148E+01  0.34316991296E+01 -0.10507024882E+02  0.13804290173E+02  0.00000000000E+00 0. -1.
         -5    1    3    3    0  503 -0.19597770911E+02 -0.45484313436E+01  0.86279798161E+02  0.88718963154E+02  0.47000000000E+01 0.  1.
         11    1    4    4    0    0  0.33987939600E+02  0.39882059256E+02  0.19466363916E+02  0.55898998317E+02  0.00000000000E+00 0. -1.
        -12    1    4    4    0    0  0.29757950065E+01 -0.39027085283E+01 -0.41208438929E+02  0.41499661791E+02  0.00000000000E+00 0.  1.
</event>
<event>
12    1  0.8297444E-002  0.2762331E+03  0.7818608E-02  0.1097803E+00
         21   -1    0    0  501  502  0.00000000000E+00  0.00000000000E+00  0.47332475936E+03  0.47332475936E+03  0.00000000000E+00 0.  1.
         21   -1    0    0  502  503 -0.00000000000E+00 -0.00000000000E+00 -0.26067536536E+03  0.26067536536E+03  0.00000000000E+00 0. -1.
         -6    2    1    2    0  503  0.15123892109E+03  0.15269572189E+03 -0.12052668430E+03  0.30138247090E+03  0.17353823037E+03 0.  0.
        -24    2    3    3    0    0  0.10176033472E+03  0.97603612772E+02  0.52854634340E+01  0.15532064319E+03  0.64922531750E+02 0.  0.
          6    2    1    2  501    0 -0.15123892109E+03 -0.15269572189E+03  0.33317607830E+03  0.43261765383E+03  0.17309691076E+03 0.  0.
         24    2    5    5    0    0 -0.78302626342E+02 -0.12425565006E+03  0.30703801320E+03  0.34995067599E+03  0.81377922144E+02 0.  0.
          5    1    5    5  501    0 -0.72936294748E+02 -0.28440071829E+02  0.26138065097E+02  0.82666977834E+02  0.47000000000E+01 0. -1.
        -13    1    6    6    0    0 -0.49416064376E+02 -0.69659022087E+02  0.25585269266E+03  0.26973121272E+03  0.00000000000E+00 0.  1.
         14    1    6    6    0    0 -0.28886561965E+02 -0.54596627972E+02  0.51185320547E+02  0.80219463271E+02  0.00000000000E+00 0. -1.
         -5    1    3    3    0  503  0.49478586370E+02  0.55092109116E+02 -0.12581214773E+03  0.14606182771E+03  0.47000000000E+01 0.  1.
         13    1    4    4    0    0  0.90544113174E+02  0.48131137259E+02 -0.80851375583E+01  0.10286015873E+03  0.00000000000E+00 0. -1.
        -14    1    4    4    0    0  0.11216221547E+02  0.49472475512E+02  0.13370600992E+02  0.52460484462E+02  0.00000000000E+00 0.  1.
</event>
<event>
12    1  0.8297444E-002  0.1755728E+03  0.7818608E-02  0.1172836E+00
         21   -1    0    0  501  502  0.00000000000E+00  0.00000000000E+00  0.18899752018E+03  0.18899752018E+03  0.00000000000E+00 0.  1.
         21   -1    0    0  502  503 -0.00000000000E+00 -0.00000000000E+00 -0.19717187092E+03  0.19717187092E+03  0.00000000000E+00 0.  1.
         -6    2    1    2    0  503  0.30603220472E+02  0.19036141398E+02 -0.87203323802E+02  0.19363010606E+03  0.16908360804E+03 0.  0.
        -24    2    3    3    0    0  0.56406039945E+01 -0.27540451001E+02  0.80136408563E+01  0.84630695328E+02  0.79421932092E+02 0.  0.
          6    2    1    2  501    0 -0.30603220472E+02 -0.19036141398E+02  0.79028973060E+02  0.19253928504E+03  0.17183383229E+03 0.  0.
         24    2    5    5    0    0 -0.47973635412E+02  0.91247150770E+01  0.11184114386E+03  0.14570453614E+03  0.79603016718E+02 0.  0.
          5    1    5    5  501    0  0.17370414940E+02 -0.28160856475E+02 -0.32812170800E+02  0.46834748908E+02  0.47000000000E+01 0. -1.
        -11    1    6    6    0    0 -0.12604969293E+02 -0.24453781910E+02  0.86448421935E+02  0.90720462717E+02  0.00000000000E+00 0.  1.
         12    1    6    6    0    0 -0.35368666119E+02  0.33578496987E+02  0.25392721925E+02  0.54984073418E+02  0.00000000000E+00 0. -1.
         -5    1    3    3    0  503  0.24962616477E+02  0.46576592399E+02 -0.95216964658E+02  0.10899941073E+03  0.47000000000E+01 0.  1.
         13    1    4    4    0    0 -0.27722420291E+02 -0.21821938819E+02 -0.20121241564E+02  0.40615193742E+02  0.00000000000E+00 0. -1.
        -14    1    4    4    0    0  0.33363024286E+02 -0.57185121822E+01  0.28134882421E+02  0.44015501586E+02  0.00000000000E+00 0.  1.
</event>
<event>
12    1  0.8297444E-002  0.2133579E+03  0.7818608E-02  0.1139897E+00
         21   -1    0    0  501  502  0.00000000000E+00  0.00000000000E+00  0.22288759445E+03  0.22288759445E+03  0.00000000000E+00 0.  1.
         21   -1    0    0  502  503 -0.00000000000E+00 -0.00000000000E+00 -0.39385615831E+03  0.39385615831E+03  0.00000000000E+00 0.  1.
         -6    2    1    2    0  503  0.38602608280E+02  0.11147465502E+03 -0.30155845885E+03  0.36659312800E+03  0.17186115708E+03 0.  0.
        -24    2    3    3    0    0 -0.40102267300E+02  0.39093475911E+02 -0.10783740267E+03  0.14527112245E+03  0.79613453032E+02 0.  0.
          6    2    1    2  501    0 -0.38602608280E+02 -0.11147465502E+03  0.13058989499E+03  0.25015062477E+03  0.17777754166E+03 0.  0.
         24    2    5    5    0    0 -0.19559941374E+02 -0.61048123272E+02 -0.64871750321E+01  0.10278145773E+03  0.80077961711E+02 0.  0.
          5    1    5    5  501    0 -0.19042666906E+02 -0.50426531747E+02  0.13707707002E+03  0.14736916704E+03  0.47000000000E+01 0. -1.
        -11    1    6    6    0    0 -0.41752335269E+02 -0.48143722647E+02  0.19108782952E+02  0.66529851320E+02  0.00000000000E+00 0.  1.
         12    1    6    6    0    0  0.22192393895E+02 -0.12904400624E+02 -0.25595957984E+02  0.36251606411E+02  0.00000000000E+00 0. -1.
         -5    1    3    3    0  503  0.78704875580E+02  0.72381179108E+02 -0.19372105619E+03  0.22132200555E+03  0.47000000000E+01 0.  1.
         11    1    4    4    0    0  0.32607715212E+01 -0.13651458250E+02  0.36799435842E+01  0.14509890698E+02  0.00000000000E+00 0. -1.
        -12    1    4    4    0    0 -0.43363038821E+02  0.52744934162E+02 -0.11151734625E+03  0.13076123175E+03  0.00000000000E+00 0.  1.
</event>
<event>
12    1  0.8297444E-002  0.1855631E+03  0.7818608E-02  0.1162575E+00
         21   -1    0    0  503  502  0.00000000000E+00  0.00000000000E+00  0.17976340439E+03  0.17976340439E+03  0.00000000000E+00 0.  1.
         21   -1    0    0  501  503 -0.00000000000E+00 -0.00000000000E+00 -0.23774166134E+03  0.23774166134E+03  0.00000000000E+00 0.  1.
          6    2    1    2  501    0  0.61602794576E+02 -0.31391115533E+02 -0.12121010147E+03  0.22146445060E+03  0.17197182254E+03 0.  0.
         24    2    3    3    0    0  0.81553260004E+02 -0.41496086584E+02 -0.28342882775E+02  0.12582689616E+03  0.81585717961E+02 0.  0.
         -6    2    1    2    0  502 -0.61602794576E+02  0.31391115533E+02  0.63231844512E+02  0.19604061513E+03  0.17220148136E+03 0.  0.
        -24    2    5    5    0    0 -0.64947176446E+02  0.44612916358E+02 -0.16668652919E+02  0.11484837167E+03  0.81877081356E+02 0.  0.
          5    1    3    3  501    0 -0.19950465428E+02  0.10104971052E+02 -0.92867218695E+02  0.95637554438E+02  0.47000000000E+01 0. -1.
        -11    1    4    4    0    0  0.39921906309E+02 -0.50630356982E+02 -0.46504054110E+02  0.79497287376E+02  0.00000000000E+00 0.  1.
         12    1    4    4    0    0  0.41631353695E+02  0.91342703979E+01  0.18161171335E+02  0.46329608788E+02  0.00000000000E+00 0. -1.
         -5    1    5    5    0  502  0.33443818701E+01 -0.13221800825E+02  0.79900497431E+02  0.81192243453E+02  0.47000000000E+01 0.  1.
         11    1    6    6    0    0 -0.22056638793E+01 -0.21257634930E+01 -0.34474978239E+02  0.34610806811E+02  0.00000000000E+00 0. -1.
        -12    1    6    6    0    0 -0.62741512567E+02  0.46738679851E+02  0.17806325320E+02  0.80237564861E+02  0.00000000000E+00 0.  1.
</event>
<event>
12    1  0.8297444E-002  0.2130926E+03  0.7818608E-02  0.1140632E+00
         21   -1    0    0  503  502  0.00000000000E+00  0.00000000000E+00  0.35652475584E+03  0.35652475584E+03  0.00000000000E+00 0. -1.
         21   -1    0    0  501  503 -0.00000000000E+00 -0.00000000000E+00 -0.12713353868E+03  0.12713353868E+03  0.00000000000E+00 0. -1.
          6    2    1    2  501    0 -0.51430273026E+02  0.11511843158E+03  0.16080858079E+03  0.26696041682E+03  0.17178806193E+03 0.  0.
         24    2    3    3    0    0 -0.68611824320E+02  0.14452459494E+03  0.12580775860E+03  0.21789845903E+03  0.77828049861E+02 0.  0.
         -6    2    1    2    0  502  0.51430273026E+02 -0.11511843158E+03  0.68582636370E+02  0.21669787770E+03  0.16234859381E+03 0.  0.
        -24    2    5    5    0    0  0.21146754041E+02 -0.72478295150E+02  0.10583462140E+03  0.15231563523E+03  0.79364961874E+02 0.  0.
          5    1    3    3  501    0  0.17181551294E+02 -0.29406163359E+02  0.35000822185E+02  0.49061957788E+02  0.47000000000E+01 0. -1.
        -11    1    4    4    0    0 -0.40084833582E+01 -0.81406733081E+01 -0.10803554989E+01  0.91381436159E+01  0.00000000000E+00 0.  1.
         12    1    4    4    0    0 -0.64603340962E+02  0.15266526825E+03  0.12688811410E+03  0.20876031542E+03  0.00000000000E+00 0. -1.
         -5    1    5    5    0  502  0.30283518985E+02 -0.42640136433E+02 -0.37251985028E+02  0.64382242472E+02  0.47000000000E+01 0.  1.
         11    1    6    6    0    0 -0.14895884727E+02 -0.34250182833E+02  0.37919220392E+01  0.37541191758E+02  0.00000000000E+00 0. -1.
        -12    1    6    6    0    0  0.36042638768E+02 -0.38228112317E+02  0.10204269936E+03  0.11477444347E+03  0.00000000000E+00 0.  1.
</event>
<event>
12    1  0.8297444E-002  0.2308441E+03  0.7818608E-02  0.1126162E+00
         21   -1    0    0  503  502  0.00000000000E+00  0.00000000000E+00  0.64726119719E+03  0.64726119719E+03  0.00000000000E+00 0.  1.
         21   -1    0    0  501  503 -0.00000000000E+00 -0.00000000000E+00 -0.14880761510E+03  0.14880761510E+03  0.00000000000E+00 0. -1.
          6    2    1    2  501    0  0.13565102791E+03 -0.70850931549E+02 -0.17084405983E+02  0.23147539916E+03  0.17282340008E+03 0.  0.
         24    2    3    3    0    0  0.54571569889E+02 -0.10283485672E+03 -0.25845455738E+02  0.14375028317E+03  0.80268875237E+02 0.  0.
         -6    2    1    2    0  502 -0.13565102791E+03  0.70850931549E+02  0.51553798807E+03  0.56459341313E+03  0.17194548300E+03 0.  0.
        -24    2    5    5    0    0 -0.13743374870E+03  0.10801257856E+03  0.44425487930E+03  0.48404816064E+03  0.79909146057E+02 0.  0.
          5    1    3    3  501    0  0.81079458017E+02  0.31983925175E+02  0.87610497551E+01  0.87725115986E+02  0.47000000000E+01 0. -1.
        -11    1    4    4    0    0  0.40942460048E+02 -0.19621501467E+02  0.17843780083E+02  0.48782054511E+02  0.00000000000E+00 0.  1.
         12    1    4    4    0    0  0.13629109841E+02 -0.83213355258E+02 -0.43689235822E+02  0.94968228661E+02  0.00000000000E+00 0. -1.
         -5    1    5    5    0  502  0.17827207910E+01 -0.37161647014E+02  0.71283108774E+02  0.80545252490E+02  0.47000000000E+01 0.  1.
         11    1    6    6    0    0 -0.34249636808E+01 -0.46604675198E+01 -0.75762993008E+00  0.58330383874E+01  0.00000000000E+00 0. -1.
        -12    1    6    6    0    0 -0.13400878502E+03  0.11267304608E+03  0.44501250923E+03  0.47821512225E+03  0.00000000000E+00 0.  1.
</event>
<event>
12    1  0.8297444E-002  0.2315809E+03  0.7818608E-02  0.1125567E+00
         21   -1    0    0  503  502  0.00000000000E+00  0.00000000000E+00  0.17670163015E+04  0.17670163015E+04  0.00000000000E+00 0.  1.
         21   -1    0    0  501  503 -0.00000000000E+00 -0.00000000000E+00 -0.87139027153E+02  0.87139027153E+02  0.00000000000E+00 0.  1.
          6    2    1    2  501    0  0.91185647640E+02 -0.12313983019E+03  0.91480362776E+02  0.24899468804E+03  0.17364175127E+03 0.  0.
         24    2    3    3    0    0  0.45478395822E+02 -0.83034671495E+02 -0.20853331162E+02  0.12117244656E+03  0.72697037274E+02 0.  0.
         -6    2    1    2    0  502 -0.91185647640E+02  0.12313983019E+03  0.15883969116E+04  0.16051606406E+04  0.17337154718E+03 0.  0.
        -24    2    5    5    0    0 -0.78561306820E+02  0.94291479380E+01  0.57827414582E+03  0.58856849765E+03  0.75836013513E+02 0.  0.
          5    1    3    3  501    0  0.45707251818E+02 -0.40105158700E+02  0.11233369394E+03  0.12782224148E+03  0.47000000000E+01 0. -1.
        -11    1    4    4    0    0  0.56011212765E+02 -0.27596487045E+02 -0.54494283978E+01  0.62677893412E+02  0.00000000000E+00 0.  1.
         12    1    4    4    0    0 -0.10532816943E+02 -0.55438184449E+02 -0.15403902764E+02  0.58494553150E+02  0.00000000000E+00 0. -1.
         -5    1    5    5    0  502 -0.12624340820E+02  0.11371068226E+03  0.10101227658E+04  0.10165921430E+04  0.47000000000E+01 0.  1.
         11    1    6    6    0    0 -0.90841984218E+02  0.17988038079E+02  0.45043651382E+03  0.45985746552E+03  0.00000000000E+00 0. -1.
        -12    1    6    6    0    0  0.12280677398E+02 -0.85588901413E+01  0.12783763199E+03  0.12871103213E+03  0.00000000000E+00 0.  1.
</event>
<event>
12    1  0.8297444E-002  0.2120349E+03  0.7818608E-02  0.1140009E+00
         21   -1    0    0  501  502  0.00000000000E+00  0.00000000000E+00  0.11721072649E+03  0.11721072649E+03  0.00000000000E+00 0. -1.
         21   -1    0    0  502  503 -0.00000000000E+00 -0.00000000000E+00 -0.59564923089E+03  0.59564923089E+03  0.00000000000E+00 0. -1.
         -6    2    1    2    0  503 -0.11433557202E+03  0.47834707469E+02 -0.45202128249E+03  0.49918573797E+03  0.17176256548E+03 0.  0.
        -24    2    3    3    0    0 -0.68928782709E+02  0.72831592201E+02 -0.41778451792E+03  0.43688913445E+03  0.79199712639E+02 0.  0.
          6    2    1    2  501    0  0.11433557202E+03 -0.47834707469E+02 -0.26417221906E+02  0.21367421940E+03  0.17204075144E+03 0.  0.
         24    2    5    5    0    0  0.36569916112E+02  0.35041064324E+02  0.13013620332E+02  0.93288289537E+02  0.77253580481E+02 0.  0.
          5    1    5    5  501    0  0.77765655909E+02 -0.82875771794E+02 -0.39430842238E+02  0.12038592986E+03  0.47000000000E+01 0. -1.
        -13    1    6    6    0    0  0.57144884139E+02  0.10789258771E+02 -0.18471918343E+01  0.58183829418E+02  0.00000000000E+00 0.  1.
         14    1    6    6    0    0 -0.20574968027E+02  0.24251805554E+02  0.14860812166E+02  0.35104460118E+02  0.00000000000E+00 0. -1.
         -5    1    3    3    0  503 -0.45406789311E+02 -0.24996884731E+02 -0.34236764577E+02  0.62296603523E+02  0.47000000000E+01 0.  1.
         13    1    4    4    0    0 -0.52275480899E+02  0.59764473527E+01 -0.25060516027E+03  0.25606911212E+03  0.00000000000E+00 0. -1.
        -14    1    4    4    0    0 -0.16653301810E+02  0.66855144848E+02 -0.16717935765E+03  0.18082002233E+03  0.00000000000E+00 0.  1.
</event>
<event>
12    1  0.8297444E-002  0.1900697E+03  0.7818608E-02  0.1159930E+00
         21   -1    0    0  501  502  0.00000000000E+00  0.00000000000E+00  0.26303451542E+03  0.26303451542E+03  0.00000000000E+00 0.  1.
         21   -1    0    0  502  503 -0.00000000000E+00 -0.00000000000E+00 -0.30174733796E+03  0.30174733796E+03  0.00000000000E+00 0.  1.
         -6    2    1    2    0  503  0.70140208569E+02  0.68862169819E+01 -0.23063603668E+03  0.29466887151E+03  0.16932127327E+03 0.  0.
        -24    2    3    3    0    0  0.45173092257E+02 -0.27307718903E+02 -0.48394654318E+02  0.10751494131E+03  0.80194141068E+02 0.  0.
          6    2    1    2  501    0 -0.70140208569E+02 -0.68862169819E+01  0.19192321414E+03  0.27011298187E+03  0.17652035012E+03 0.  0.
         24    2    5    5    0    0 -0.33362962960E+02 -0.42064089118E+02  0.20078058459E+03  0.21824207004E+03  0.66590412935E+02 0.  0.
          5    1    5    5  501    0 -0.36777245609E+02  0.35177872136E+02 -0.88573704517E+01  0.51870911829E+02  0.47000000000E+01 0. -1.
        -13    1    6    6    0    0 -0.16557234016E+02  0.15556323843E+02  0.82953944320E+02  0.86008709373E+02  0.00000000000E+00 0.  1.
         14    1    6    6    0    0 -0.16805728944E+02 -0.57620412961E+02  0.11782664027E+03  0.13223336067E+03  0.00000000000E+00 0. -1.
         -5    1    3    3    0  503  0.24967116313E+02  0.34193935884E+02 -0.18224138236E+03  0.18715393021E+03  0.47000000000E+01 0.  1.
         11    1    4    4    0    0  0.44461685899E+02 -0.53604474299E+02 -0.33459904118E+02  0.77264780861E+02  0.00000000000E+00 0. -1.
        -12    1    4    4    0    0  0.71140635722E+00  0.26296755396E+02 -0.14934750199E+02  0.30250160444E+02  0.00000000000E+00 0.  1.
</event>
<event>
12    1  0.8297444E-002  0.2224895E+03  0.7818608E-02  0.1132243E+00
         21   -1    0    0  503  502  0.00000000000E+00  0.00000000000E+00  0.59752972416E+02  0.59752972416E+02  0.00000000000E+00 0. -1.
         21   -1    0    0  501  503 -0.00000000000E+00 -0.00000000000E+00 -0.88855156458E+03  0.88855156458E+03  0.00000000000E+00 0.  1.
          6    2    1    2  501    0 -0.33231517416E+02  0.13624067365E+03 -0.54089330930E+03  0.58444875554E+03  0.17131526754E+03 0.  0.
         24    2    3    3    0    0  0.20666659504E+02  0.10306516761E+03 -0.47521771083E+03  0.49311966975E+03  0.79281753370E+02 0.  0.
         -6    2    1    2    0  502  0.33231517416E+02 -0.13624067365E+03 -0.28790528286E+03  0.36385578146E+03  0.17273020262E+03 0.  0.
        -24    2    5    5    0    0 -0.33080762896E+02 -0.12421977878E+03 -0.22656434705E+03  0.27260546179E+03  0.80358223794E+02 0.  0.
          5    1    3    3  501    0 -0.53898176919E+02  0.33175506035E+02 -0.65675598475E+02  0.91329085788E+02  0.47000000000E+01 0. -1.
        -11    1    4    4    0    0  0.46982809492E+02  0.41367524611E+02 -0.27231373698E+03  0.27941622686E+03  0.00000000000E+00 0.  1.
         12    1    4    4    0    0 -0.26316149988E+02  0.61697643000E+02 -0.20290397384E+03  0.21370344289E+03  0.00000000000E+00 0. -1.
         -5    1    5    5    0  502  0.66312280312E+02 -0.12020894870E+02 -0.61340935813E+02  0.91250319671E+02  0.47000000000E+01 0.  1.
         13    1    6    6    0    0  0.12452688642E+01  0.91708522100E+01 -0.24913575412E+01  0.95844711487E+01  0.00000000000E+00 0. -1.
        -14    1    6    6    0    0 -0.34326031760E+02 -0.13339063099E+03 -0.22407298951E+03  0.26302099064E+03  0.00000000000E+00 0.  1.
</event>
<event>
12    1  0.8297444E-002  0.1742965E+03  0.7818608E-02  0.1173739E+00
         21   -1    0    0  503  502  0.00000000000E+00  0.00000000000E+00  0.69444093084E+02  0.69444093084E+02  0.00000000000E+00 0.  1.
         21   -1    0    0  501  503 -0.00000000000E+00 -0.00000000000E+00 -0.44052294611E+03  0.44052294611E+03  0.00000000000E+00 0.  1.
          6    2    1    2  501    0  0.71932588452E+01  0.26740472799E+02 -0.21471676914E+03  0.27581247798E+03  0.17088720315E+03 0.  0.
         24    2    3    3    0    0  0.25420407451E+02  0.10083722972E+01 -0.22706325353E+03  0.24162336247E+03  0.78593347398E+02 0.  0.
         -6    2    1    2    0  502 -0.71932588452E+01 -0.26740472799E+02 -0.15636208389E+03  0.23415456121E+03  0.17208271674E+03 0.  0.
        -24    2    5    5    0    0 -0.23463365232E+02 -0.63769495244E+02 -0.16243326474E+03  0.19298644124E+03  0.79007107136E+02 0.  0.
          5    1    3    3  501    0 -0.18227148605E+02  0.25732100501E+02  0.12346484395E+02  0.34189115511E+02  0.47000000000E+01 0. -1.
        -13    1    4    4    0    0 -0.23031139362E+02 -0.18470985638E+02 -0.65901916987E+02  0.72212695236E+02  0.00000000000E+00 0.  1.
         14    1    4    4    0    0  0.48451546813E+02  0.19479357936E+02 -0.16116133655E+03  0.16941066723E+03  0.00000000000E+00 0. -1.
         -5    1    5    5    0  502  0.16270106386E+02  0.37029022446E+02  0.60711808519E+01  0.41168119972E+02  0.47000000000E+01 0.  1.
         11    1    6    6    0    0  0.18828463390E+02 -0.55004626832E+02 -0.11483645534E+03  0.12871453485E+03  0.00000000000E+00 0. -1.
        -12    1    6    6    0    0 -0.42291828621E+02 -0.87648684125E+01 -0.47596809399E+02  0.64271906393E+02  0.00000000000E+00 0.  1.
</event>
<event>
12    1  0.8297444E-002  0.1922192E+03  0.7818608E-02  0.1156525E+00
         21   -1    0    0  501  502  0.00000000000E+00  0.00000000000E+00  0.82210753991E+02  0.82210753991E+02  0.00000000000E+00 0. -1.
         21   -1    0    0  502  503 -0.00000000000E+00 -0.00000000000E+00 -0.51362429223E+03  0.51362429223E+03  0.00000000000E+00 0.  1.
         -6    2    1    2    0  503 -0.82193793050E+02  0.12121199495E+02 -0.32134888560E+03  0.37433457295E+03  0.17308530595E+03 0.  0.
        -24    2    3    3    0    0 -0.66624910465E+02  0.36285763312E+01 -0.33547968526E+03  0.35117676104E+03  0.79539003078E+02 0.  0.
          6    2    1    2  501    0  0.82193793050E+02 -0.12121199495E+02 -0.11006465264E+03  0.22150047327E+03  0.17333634589E+03 0.  0.
         24    2    5    5    0    0  0.12235754112E+03 -0.13534369655E+02 -0.10646035453E+03  0.18087776196E+03  0.78920280375E+02 0.  0.
          5    1    5    5  501    0 -0.40163748074E+02  0.14131701599E+01 -0.36042981137E+01  0.40622711309E+02  0.47000000000E+01 0. -1.
        -13    1    6    6    0    0  0.98835383952E+02  0.21100866474E+02 -0.91758756816E+02  0.13650402609E+03  0.00000000000E+00 0.  1.
         14    1    6    6    0    0  0.23522157172E+02 -0.34635236129E+02 -0.14701597709E+02  0.44373735869E+02  0.00000000000E+00 0. -1.
         -5    1    3    3    0  503 -0.15568882585E+02  0.84926231636E+01  0.14130799665E+02  0.23157811907E+02  0.47000000000E+01 0.  1.
         13    1    4    4    0    0 -0.43952735396E+02  0.20115793687E+02 -0.75223241102E+02  0.89414898682E+02  0.00000000000E+00 0. -1.
        -14    1    4    4    0    0 -0.22672175069E+02 -0.16487217356E+02 -0.26025644416E+03  0.26176186236E+03  0.00000000000E+00 0.  1.
</event>
<event>
12    1  0.8297444E-002  0.2403090E+03  0.7818608E-02  0.1119651E+00
         21   -1    0    0  503  502  0.00000000000E+00  0.00000000000E+00  0.46048111128E+03  0.46048111128E+03  0.00000000000E+00 0. -1.
         21   -1    0    0  501  503 -0.00000000000E+00 -0.00000000000E+00 -0.14051384672E+03  0.14051384672E+03  0.00000000000E+00 0.  1.
          6    2    1    2  501    0 -0.13015031050E+03 -0.10486297756E+03  0.60919817058E+02  0.24791058729E+03  0.17266466863E+03 0.  0.
         24    2    3    3    0    0 -0.16026572229E+03 -0.10881509381E+03  0.56125928011E+02  0.21680385775E+03  0.79548517016E+02 0.  0.
         -6    2    1    2    0  502  0.13015031050E+03  0.10486297756E+03  0.25904744750E+03  0.35308437071E+03  0.17212682941E+03 0.  0.
        -24    2    5    5    0    0  0.38555574958E+02  0.91693345529E+02  0.21581092171E+03  0.25083701403E+03  0.80315949247E+02 0.  0.
          5    1    3    3  501    0  0.30115411789E+02  0.39521162487E+01  0.47938890472E+01  0.31106729534E+02  0.47000000000E+01 0. -1.
        -11    1    4    4    0    0  0.33556535836E+01 -0.24130145878E+02  0.12885068058E+02  0.27559922531E+02  0.00000000000E+00 0.  1.
         12    1    4    4    0    0 -0.16362137587E+03 -0.84684947934E+02  0.43240859953E+02  0.18924393522E+03  0.00000000000E+00 0. -1.
         -5    1    5    5    0  502  0.91594735539E+02  0.13169632034E+02  0.43236525781E+02  0.10224735668E+03  0.47000000000E+01 0.  1.
         11    1    6    6    0    0 -0.12129723845E+02  0.15671059884E+02  0.40799451825E+01  0.20232604161E+02  0.00000000000E+00 0. -1.
        -12    1    6    6    0    0  0.50685298803E+02  0.76022285645E+02  0.21173097653E+03  0.23060440987E+03  0.00000000000E+00 0.  1.
</event>
<event>
12    1  0.8297444E-002  0.2017169E+03  0.7818608E-02  0.1148386E+00
         21   -1    0    0  501  502  0.00000000000E+00  0.00000000000E+00  0.11355928152E+03  0.11355928152E+03  0.00000000000E+00 0. -1.
         21   -1    0    0  502  503 -0.00000000000E+00 -0.00000000000E+00 -0.39857149834E+03  0.39857149834E+03  0.00000000000E+00 0.  1.
         -6    2    1    2    0  503  0.35638663353E+02  0.98580286703E+02 -0.22477471161E+03  0.30201553178E+03  0.17234129860E+03 0.  0.
        -24    2    3    3    0    0  0.78979461552E+02  0.24018937736E+02 -0.13769540134E+03  0.17936678199E+03  0.79985962598E+02 0.  0.
          6    2    1    2  501    0 -0.35638663353E+02 -0.98580286703E+02 -0.60237505204E+02  0.21011524808E+03  0.17184781986E+03 0.  0.
         24    2    5    5    0    0  0.34954360339E+02 -0.55923899658E+00 -0.46853916888E+01  0.77075298808E+02  0.68531224534E+02 0.  0.
          5    1    5    5  501    0 -0.70593023692E+02 -0.98021047706E+02 -0.55552113515E+02  0.13303994928E+03  0.47000000000E+01 0. -1.
        -11    1    6    6    0    0  0.22225433723E+01 -0.31618002965E+02  0.13478398102E+00  0.31696308574E+02  0.00000000000E+00 0.  1.
         12    1    6    6    0    0  0.32731816967E+02  0.31058763968E+02 -0.48201756699E+01  0.45378990234E+02  0.00000000000E+00 0. -1.
         -5    1    3    3    0  503 -0.43340798199E+02  0.74561348967E+02 -0.87079310265E+02  0.12264874979E+03  0.47000000000E+01 0.  1.
         11    1    4    4    0    0  0.72219131651E+02 -0.72885198908E+00 -0.49606458559E+02  0.87618119887E+02  0.00000000000E+00 0. -1.
        -12    1    4    4    0    0  0.67603299004E+01  0.24747789725E+02 -0.88088942783E+02  0.91748662101E+02  0.00000000000E+00 0.  1.
</event>
<event>
12    1  0.8297444E-002  0.2226692E+03  0.7818608E-02  0.1132283E+00
         21   -1    0    0  503  502  0.00000000000E+00  0.00000000000E+00  0.67457021121E+03  0.67457021121E+03  0.00000000000E+00 0. -1.
         21   -1    0    0  501  503 -0.00000000000E+00 -0.00000000000E+00 -0.74054808540E+02  0.74054808540E+02  0.00000000000E+00 0.  1.
          6    2    1    2  501    0 -0.11554460553E+03 -0.79406268281E+02  0.25080080327E+03  0.33403860760E+03  0.17036677239E+03 0.  0.
         24    2    3    3    0    0 -0.10673182750E+03 -0.66241149659E+02  0.27105839588E+03  0.30789581771E+03  0.74482264166E+02 0.  0.
         -6    2    1    2    0  502  0.11554460553E+03  0.79406268281E+02  0.34971459940E+03  0.41458641215E+03  0.17299040666E+03 0.  0.
        -24    2    5    5    0    0  0.13884568339E+03  0.51997562478E+02  0.33585100758E+03  0.37574742965E+03  0.80052241071E+02 0.  0.
          5    1    3    3  501    0 -0.88127780314E+01 -0.13165118623E+02 -0.20257592609E+02  0.26142789891E+02  0.47000000000E+01 0. -1.
        -13    1    4    4    0    0 -0.30547077753E+02 -0.60331400456E+02  0.15283305312E+03  0.16712553355E+03  0.00000000000E+00 0.  1.
         14    1    4    4    0    0 -0.76184749748E+02 -0.59097492028E+01  0.11822534276E+03  0.14077028416E+03  0.00000000000E+00 0. -1.
         -5    1    5    5    0  502 -0.23301077859E+02  0.27408705803E+02  0.13863591822E+02  0.38838982497E+02  0.47000000000E+01 0.  1.
         11    1    6    6    0    0  0.12622911772E+03  0.25849498897E+02  0.20827087826E+03  0.24490558484E+03  0.00000000000E+00 0. -1.
        -12    1    6    6    0    0  0.12616565673E+02  0.26148063581E+02  0.12758012931E+03  0.13084184481E+03  0.00000000000E+00 0.  1.
</event>
<event>
12    1  0.8297444E-002  0.2052418E+03  0.7818608E-02  0.1145419E+00
         21   -1    0    0  501  502  0.00000000000E+00  0.00000000000E+00  0.37820335193E+03  0.37820335193E+03  0.00000000000E+00 0. -1.
         21   -1    0    0  502  503 -0.00000000000E+00 -0.00000000000E+00 -0.14583610349E+03  0.14583610349E+03  0.00000000000E+00 0. -1.
         -6    2    1    2    0  503 -0.11262981676E+03 -0.11523905975E+02 -0.11347932906E+02  0.20541537673E+03  0.17102171027E+03 0.  0.
        -24    2    3    3    0    0 -0.77317726795E+02  0.53597041918E+02 -0.32891760094E+02  0.12812431617E+03  0.80518934001E+02 0.  0.
          6    2    1    2  501    0  0.11262981676E+03  0.11523905975E+02  0.24371518134E+03  0.31862407869E+03  0.17118977152E+03 0.  0.
         24    2    5    5    0    0  0.48606026699E+02 -0.20881960042E+02  0.43216125325E+02  0.10561903812E+03  0.80555233461E+02 0.  0.
          5    1    5    5  501    0  0.64023790059E+02  0.32405866017E+02  0.20049905602E+03  0.21300504057E+03  0.47000000000E+01 0. -1.
        -11    1    6    6    0    0  0.23663337098E+02 -0.32442119397E+01 -0.22710691745E+02  0.32958366969E+02  0.00000000000E+00 0.  1.
         12    1    6    6    0    0  0.24942689601E+02 -0.17637748102E+02  0.65926817070E+02  0.72660671148E+02  0.00000000000E+00 0. -1.
         -5    1    3    3    0  503 -0.35312089963E+02 -0.65120947893E+02  0.21543827189E+02  0.77291060557E+02  0.47000000000E+01 0.  1.
         11    1    4    4    0    0 -0.38297561535E+02 -0.17095704878E+02 -0.30907079708E+01  0.42053761075E+02  0.00000000000E+00 0. -1.
        -12    1    4    4    0    0 -0.39020165260E+02  0.70692746797E+02 -0.29801052124E+02  0.86070555094E+02  0.00000000000E+00 0.  1.
</event>
<event>
12    1  0.8297444E-002  0.1748600E+03  0.7818608E-02  0.1173027E+00
         21   -1    0    0  503  502  0.00000000000E+00  0.00000000000E+00  0.22551026591E+04  0.22551026591E+04  0.00000000000E+00 0. -1.
         21   -1    0    0  501  503 -0.00000000000E+00 -0.00000000000E+00 -0.25649552180E+02  0.25649552180E+02  0.00000000000E+00 0. -1.
          6    2    1    2  501    0  0.32870476395E+02  0.99142717038E+01  0.33126310516E+03  0.37458147046E+03  0.17145632730E+03 0.  0.
         24    2    3    3    0    0  0.58470204387E+02  0.46498265954E+02  0.13707337820E+03  0.17526896517E+03  0.79682153608E+02 0.  0.
         -6    2    1    2    0  502 -0.32870476395E+02 -0.99142717038E+01  0.18981900018E+04  0.19061707408E+04  0.17082988429E+03 0.  0.
        -24    2    5    5    0    0  0.20461687070E+02  0.19983846495E+02  0.15678464714E+04  0.15701839030E+04  0.80727297882E+02 0.  0.
          5    1    3    3  501    0 -0.25599727992E+02 -0.36583994250E+02  0.19418972695E+03  0.19931250529E+03  0.47000000000E+01 0. -1.
        -11    1    4    4    0    0  0.59487088257E+02  0.33541493439E+02  0.14483730986E+03  0.16012992156E+03  0.00000000000E+00 0.  1.
         12    1    4    4    0    0 -0.10168838697E+01  0.12956772515E+02 -0.77639316567E+01  0.15139043615E+02  0.00000000000E+00 0. -1.
         -5    1    5    5    0  502 -0.53332163466E+02 -0.29898118198E+02  0.33034353042E+03  0.33598683787E+03  0.47000000000E+01 0.  1.
         13    1    6    6    0    0 -0.18514902441E+02 -0.74114866242E+01  0.10401682590E+04  0.10403594277E+04  0.00000000000E+00 0. -1.
        -14    1    6    6    0    0  0.38976589512E+02  0.27395333119E+02  0.52767821238E+03  0.52982447530E+03  0.00000000000E+00 0.  1.
</event>
<event>
12    1  0.8297444E-002  0.2324606E+03  0.7818608E-02  0.1125333E+00
         21   -1    0    0  501  502  0.00000000000E+00  0.00000000000E+00  0.35432790541E+04  0.35432790541E+04  0.00000000000E+00 0. -1.
         21   -1    0    0  502  503 -0.00000000000E+00 -0.00000000000E+00 -0.17777947787E+02  0.17777947787E+02  0.00000000000E+00 0. -1.
         -6    2    1    2    0  503  0.15212574117E+03  0.19492402018E+02  0.10635268576E+04  0.10881325913E+04  0.17152540494E+03 0.  0.
        -24    2    3    3    0    0  0.10586419053E+02 -0.17623570399E+01  0.26414688571E+03  0.27602694918E+03  0.79385900989E+02 0.  0.
          6    2    1    2  501    0 -0.15212574117E+03 -0.19492402018E+02  0.24619742488E+04  0.24729244107E+04  0.17468756196E+03 0.  0.
         24    2    5    5    0    0 -0.32765192902E+02  0.15940918121E+02  0.54996082233E+03  0.55685554613E+03  0.79394725445E+02 0.  0.
          5    1    5    5  501    0 -0.11936054827E+03 -0.35433320139E+02  0.19120134265E+04  0.19160688645E+04  0.47000000000E+01 0. -1.
        -13    1    6    6    0    0  0.98143983607E+01 -0.16016579270E+02  0.33035758453E+03  0.33089120097E+03  0.00000000000E+00 0.  1.
         14    1    6    6    0    0 -0.42579591262E+02  0.31957497391E+02  0.21960323780E+03  0.22596434516E+03  0.00000000000E+00 0. -1.
         -5    1    3    3    0  503  0.14153932212E+03  0.21254759058E+02  0.79937997187E+03  0.81210564209E+03  0.47000000000E+01 0.  1.
         13    1    4    4    0    0  0.38884357796E+02 -0.16005069923E+02  0.94294090297E+02  0.10324500477E+03  0.00000000000E+00 0. -1.
        -14    1    4    4    0    0 -0.28297938744E+02  0.14242712884E+02  0.16985279541E+03  0.17278194442E+03  0.00000000000E+00 0.  1.
</event>
<event>
12    1  0.8297444E-002  0.2548434E+03  0.7818608E-02  0.1110636E+00
         21   -1    0    0  501  502  0.00000000000E+00  0.00000000000E+00  0.39358566655E+03  0.39358566655E+03  0.00000000000E+00 0. -1.
         21   -1    0    0  502  503 -0.00000000000E+00 -0.00000000000E+00 -0.21457727155E+03  0.21457727155E+03  0.00000000000E+00 0. -1.
         -6    2    1    2    0  503  0.76770973600E+02 -0.16857703056E+03 -0.58501644302E+02  0.26147197484E+03  0.17502329450E+03 0.  0.
        -24    2    3    3    0    0  0.10504358300E+03 -0.99444933366E+02  0.22336092280E+00  0.16634414745E+03  0.82139371783E+02 0.  0.
          6    2    1    2  501    0 -0.76770973600E+02  0.16857703056E+03  0.23751003930E+03  0.34669096327E+03  0.17167296707E+03 0.  0.
         24    2    5    5    0    0  0.59790672988E+01  0.12644054217E+03  0.96518567697E+02  0.17780124189E+03  0.79211664280E+02 0.  0.
          5    1    5    5  501    0 -0.82750040898E+02  0.42136488394E+02  0.14099147160E+03  0.16888972138E+03  0.47000000000E+01 0. -1.
        -13    1    6    6    0    0 -0.78826416423E+01 -0.87257457874E+01  0.16013644770E+02  0.19867347524E+02  0.00000000000E+00 0.  1.
         14    1    6    6    0    0  0.13861708941E+02  0.13516628795E+03  0.80504922926E+02  0.15793389437E+03  0.00000000000E+00 0. -1.
         -5    1    3    3    0  503 -0.28272609405E+02 -0.69132097195E+02 -0.58725005225E+02  0.95127827389E+02  0.47000000000E+01 0.  1.
         11    1    4    4    0    0  0.92737660141E+02 -0.11043621602E+03 -0.13558543401E+02  0.14484566102E+03  0.00000000000E+00 0. -1.
        -12    1    4    4    0    0  0.12305922864E+02  0.10991282652E+02  0.13781904324E+02  0.21498486427E+02  0.00000000000E+00 0.  1.
</event>
<event>
12    1  0.8297444E-002  0.2534624E+03  0.7818608E-02  0.1111150E+00
         21   -1    0    0  503  502  0.00000000000E+00  0.00000000000E+00  0.14122608891E+03  0.14122608891E+03  0.00000000000E+00 0. -1.
         21   -1    0    0  501  503 -0.00000000000E+00 -0.00000000000E+00 -0.58082594935E+03  0.58082594935E+03  0.00000000000E+00 0. -1.
          6    2    1    2  501    0  0.26657449524E+02  0.18440753702E+03 -0.38804665862E+03  0.46349047482E+03  0.17183262686E+03 0.  0.
         24    2    3    3    0    0  0.50910678494E+01  0.19171652900E+03 -0.38806385829E+03  0.44023922801E+03  0.80223894827E+02 0.  0.
         -6    2    1    2    0  502 -0.26657449524E+02 -0.18440753702E+03 -0.51553201812E+02  0.25856156344E+03  0.17169621472E+03 0.  0.
        -24    2    5    5    0    0  0.31247746572E+02 -0.12526275476E+03 -0.78480079970E+02  0.17139354310E+03  0.80928636893E+02 0.  0.
          5    1    3    3  501    0  0.21566381675E+02 -0.73089919833E+01  0.17199669127E-01  0.23251246809E+02  0.47000000000E+01 0. -1.
        -13    1    4    4    0    0  0.14937430928E+02  0.52329912413E+02 -0.47917506800E+02  0.72509544432E+02  0.00000000000E+00 0.  1.
         14    1    4    4    0    0 -0.98463630782E+01  0.13938661659E+03 -0.34014635149E+03  0.36772968358E+03  0.00000000000E+00 0. -1.
         -5    1    5    5    0  502 -0.57905196096E+02 -0.59144782256E+02  0.26926878157E+02  0.87168020342E+02  0.47000000000E+01 0.  1.
         13    1    6    6    0    0  0.19503686012E+02 -0.25763293606E+02 -0.61919625819E+02  0.69843977028E+02  0.00000000000E+00 0. -1.
        -14    1    6    6    0    0  0.11744060560E+02 -0.99499461153E+02 -0.16560454151E+02  0.10154956607E+03  0.00000000000E+00 0.  1.
</event>
<event>
12    1  0.8297444E-002  0.1733548E+03  0.7818608E-02  0.1175031E+00
         21   -1    0    0  503  502  0.00000000000E+00  0.00000000000E+00  0.95429381784E+03  0.95429381784E+03  0.00000000000E+00 0. -1.
         21   -1    0    0  501  503 -0.00000000000E+00 -0.00000000000E+00 -0.48594084121E+02  0.48594084121E+02  0.00000000000E+00 0. -1.
          6    2    1    2  501    0 -0.14734025476E+02 -0.11877312983E+02  0.15356975647E+03  0.23159350852E+03  0.17231866125E+03 0.  0.
         24    2    3    3    0    0  0.50478709577E+02  0.19433458617E+02  0.11943869783E+03  0.15146807938E+03  0.75836779315E+02 0.  0.
         -6    2    1    2    0  502  0.14734025476E+02  0.11877312983E+02  0.75212997724E+03  0.77129439343E+03  0.16981571366E+03 0.  0.
        -24    2    5    5    0    0  0.11842148732E+02  0.70376247980E+01  0.75768340986E+03  0.76209025596E+03  0.80669969623E+02 0.  0.
          5    1    3    3  501    0 -0.65212735053E+02 -0.31310771600E+02  0.34131058639E+02  0.80125429142E+02  0.47000000000E+01 0. -1.
        -13    1    4    4    0    0 -0.88507023433E+01 -0.54969323853E+01  0.68786029820E+02  0.69570605114E+02  0.00000000000E+00 0.  1.
         14    1    4    4    0    0  0.59329411920E+02  0.24930391002E+02  0.50652668013E+02  0.81897474266E+02  0.00000000000E+00 0. -1.
         -5    1    5    5    0  502  0.28918767443E+01  0.48396881850E+01 -0.55534326188E+01  0.92041374764E+01  0.47000000000E+01 0.  1.
         11    1    6    6    0    0  0.35173082487E+02 -0.24257585663E+02  0.41232228162E+03  0.41453014379E+03  0.00000000000E+00 0. -1.
        -12    1    6    6    0    0 -0.23330933756E+02  0.31295210461E+02  0.34536112824E+03  0.34756011217E+03  0.00000000000E+00 0.  1.
</event>
<event>
12    1  0.8297444E-002  0.1758203E+03  0.7818608E-02  0.1172385E+00
         21   -1    0    0  503  502  0.00000000000E+00  0.00000000000E+00  0.20958062594E+04  0.20958062594E+04  0.00000000000E+00 0. -1.
         21   -1    0    0  501  503 -0.00000000000E+00 -0.00000000000E+00 -0.21312204721E+02  0.21312204721E+02  0.00000000000E+00 0. -1.
          6    2    1    2  501    0 -0.27777863921E+02  0.11515437766E+02  0.16278363378E+04  0.16371018998E+04  0.17131045710E+03 0.  0.
         24    2    3    3    0    0 -0.78933995141E+02  0.12275356329E+02  0.13292177976E+04  0.13340958771E+04  0.81305571488E+02 0.  0.
         -6    2    1    2    0  502  0.27777863921E+02 -0.11515437766E+02  0.44665771690E+03  0.48001656432E+03  0.17322982112E+03 0.  0.
        -24    2    5    5    0    0 -0.45045295833E+02  0.20998937348E+02  0.22538982373E+03  0.24476782844E+03  0.81490386865E+02 0.  0.
          5    1    3    3  501    0  0.51156131220E+02 -0.75991856275E+00  0.29861854022E+03  0.30300602272E+03  0.47000000000E+01 0. -1.
        -11    1    4    4    0    0 -0.16124965120E+02  0.35781198817E+02  0.28002238562E+03  0.28275934138E+03  0.00000000000E+00 0.  1.
         12    1    4    4    0    0 -0.62809030021E+02 -0.23505842488E+02  0.10491954120E+04  0.10513365357E+04  0.00000000000E+00 0. -1.
         -5    1    5    5    0  502  0.72823159754E+02 -0.32514375115E+02  0.22126789317E+03  0.23524873588E+03  0.47000000000E+01 0.  1.
         11    1    6    6    0    0  0.20457606022E+02  0.21641090241E+02  0.63937073701E+02  0.70532260877E+02  0.00000000000E+00 0. -1.
        -12    1    6    6    0    0 -0.65502901855E+02 -0.64215289293E+00  0.16145275003E+03  0.17423556756E+03  0.00000000000E+00 0.  1.
</event>
<event>
12    1  0.8297444E-002  0.2002418E+03  0.7818608E-02  0.1149541E+00
         21   -1    0    0  501  502  0.00000000000E+00  0.00000000000E+00  0.65459877819E+03  0.65459877819E+03  0.00000000000E+00 0. -1.
         21   -1    0    0  502  503 -0.00000000000E+00 -0.00000000000E+00 -0.63311160761E+02  0.63311160761E+02  0.00000000000E+00 0. -1.
         -6    2    1    2    0  503 -0.98972660235E+02 -0.26736882394E+02  0.36050142133E+03  0.41238098026E+03  0.17200683052E+03 0.  0.
        -24    2    3    3    0    0 -0.11696630107E+03 -0.62266056325E+00  0.17841445742E+03  0.22749324103E+03  0.78993371908E+02 0.  0.
          6    2    1    2  501    0  0.98972660235E+02  0.26736882394E+02  0.23078619610E+03  0.30552895869E+03  0.17197449792E+03 0.  0.
         24    2    5    5    0    0  0.60991168150E+02  0.66447522913E+02  0.21782236132E+03  0.24887492332E+03  0.79730486463E+02 0.  0.
          5    1    5    5  501    0  0.37981492085E+02 -0.39710640519E+02  0.12963834773E+02  0.56654035368E+02  0.47000000000E+01 0. -1.
        -11    1    6    6    0    0 -0.10818434003E+02  0.43587790200E+02  0.86596074726E+02  0.97549034474E+02  0.00000000000E+00 0.  1.
         12    1    6    6    0    0  0.71809602153E+02  0.22859732713E+02  0.13122628660E+03  0.15132588885E+03  0.00000000000E+00 0. -1.
         -5    1    3    3    0  503  0.17993640833E+02 -0.26114221830E+02  0.18208696391E+03  0.18488773924E+03  0.47000000000E+01 0.  1.
         11    1    4    4    0    0  0.25522048211E+00  0.11328739845E+02  0.57710881329E+02  0.58812849852E+02  0.00000000000E+00 0. -1.
        -12    1    4    4    0    0 -0.11722152155E+03 -0.11951400408E+02  0.12070357609E+03  0.16868039118E+03  0.00000000000E+00 0.  1.
</event>
<event>
12    1  0.8297444E-002  0.2289006E+03  0.7818608E-02  0.1127494E+00
         21   -1    0    0  503  502  0.00000000000E+00  0.00000000000E+00  0.35253868760E+03  0.35253868760E+03  0.00000000000E+00 0.  1.
         21   -1    0    0  501  503 -0.00000000000E+00 -0.00000000000E+00 -0.16516920867E+03  0.16516920867E+03  0.00000000000E+00 0. -1.
          6    2    1    2  501    0  0.14665592335E+03 -0.37235815344E+02  0.10966227429E+02  0.22872069680E+03  0.17116785096E+03 0.  0.
         24    2    3    3    0    0  0.34513685478E+02 -0.50436059408E+02  0.48375865210E+02  0.10967575169E+03  0.77159287191E+02 0.  0.
         -6    2    1    2    0  502 -0.14665592335E+03  0.37235815344E+02  0.17640325150E+03  0.28898719946E+03  0.17175863447E+03 0.  0.
        -24    2    5    5    0    0 -0.91420010565E+02  0.91256972811E+02  0.12943337787E+03  0.19844687395E+03  0.77088968442E+02 0.  0.
          5    1    3    3  501    0  0.11214223787E+03  0.13200244064E+02 -0.37409637780E+02  0.11904494511E+03  0.47000000000E+01 0. -1.
        -13    1    4    4    0    0  0.96081733652E+01 -0.19931633770E+02 -0.20611799838E+02  0.30239598422E+02  0.00000000000E+00 0.  1.
         14    1    4    4    0    0  0.24905512113E+02 -0.30504425638E+02  0.68987665048E+02  0.79436153267E+02  0.00000000000E+00 0. -1.
         -5    1    5    5    0  502 -0.55235912782E+02 -0.54021157466E+02  0.46969873636E+02  0.90540325514E+02  0.47000000000E+01 0.  1.
         13    1    6    6    0    0 -0.63413026843E+01  0.23540055062E+02 -0.56601387698E+01  0.25027654364E+02  0.00000000000E+00 0. -1.
        -14    1    6    6    0    0 -0.85078707880E+02  0.67716917749E+02  0.13509351664E+03  0.17341921958E+03  0.00000000000E+00 0.  1.
</event>
<event>
12    1  0.8297444E-002  0.1856472E+03  0.7818608E-02  0.1163690E+00
         21   -1    0    0  503  502  0.00000000000E+00  0.00000000000E+00  0.46808848712E+03  0.46808848712E+03  0.00000000000E+00 0. -1.
         21   -1    0    0  501  503 -0.00000000000E+00 -0.00000000000E+00 -0.22587588343E+03  0.22587588343E+03  0.00000000000E+00 0. -1.
          6    2    1    2  501    0  0.37013926653E+02  0.39770374647E+02 -0.16624072589E+03  0.24530080906E+03  0.17200230963E+03 0.  0.
         24    2    3    3    0    0  0.17934114623E+02 -0.40274655970E+02 -0.47621820569E+02  0.10085780698E+03  0.77206081710E+02 0.  0.
         -6    2    1    2    0  502 -0.37013926653E+02 -0.39770374647E+02  0.40845332957E+03  0.44866356149E+03  0.17751945105E+03 0.  0.
        -24    2    5    5    0    0  0.77293429844E+01  0.35478400338E+02  0.27350775568E+03  0.28773893246E+03  0.81662360986E+02 0.  0.
          5    1    3    3  501    0  0.19079812030E+02  0.80045030617E+02 -0.11861890532E+03  0.14444300209E+03  0.47000000000E+01 0. -1.
        -13    1    4    4    0    0  0.30967199848E+01 -0.18475516518E+02  0.20524014506E+02  0.27787939051E+02  0.00000000000E+00 0.  1.
         14    1    4    4    0    0  0.14837394638E+02 -0.21799139452E+02 -0.68145835075E+02  0.73069867925E+02  0.00000000000E+00 0. -1.
         -5    1    5    5    0  502 -0.44743269638E+02 -0.75248774984E+02  0.13494557389E+03  0.16092462903E+03  0.47000000000E+01 0.  1.
         13    1    6    6    0    0 -0.30786603895E+02 -0.42029500546E+01  0.65351807005E+02  0.72362548652E+02  0.00000000000E+00 0. -1.
        -14    1    6    6    0    0  0.38515946879E+02  0.39681350392E+02  0.20815594867E+03  0.21537638380E+03  0.00000000000E+00 0.  1.
</event>
<event>
12    1  0.8297444E-002  0.1914392E+03  0.7818608E-02  0.1157543E+00
         21   -1    0    0  501  502  0.00000000000E+00  0.00000000000E+00  0.80937593301E+03  0.80937593301E+03  0.00000000000E+00 0. -1.
         21   -1    0    0  502  503 -0.00000000000E+00 -0.00000000000E+00 -0.44003421183E+03  0.44003421183E+03  0.00000000000E+00 0. -1.
         -6    2    1    2    0  503 -0.79342420746E+02  0.69999597184E+01 -0.40723174659E+03  0.44998517750E+03  0.17408258205E+03 0.  0.
        -24    2    3    3    0    0 -0.51414869580E+02  0.67913635719E+02 -0.31821992789E+03  0.33847007581E+03  0.77732354764E+02 0.  0.
          6    2    1    2  501    0  0.79342420746E+02 -0.69999597184E+01  0.77657346777E+03  0.79942496733E+03  0.17224897205E+03 0.  0.
         24    2    5    5    0    0  0.63807077516E+02 -0.31815233193E+02  0.24198348934E+03  0.26401327551E+03  0.77868147094E+02 0.  0.
          5    1    5    5  501    0  0.15535343231E+02  0.24815273475E+02  0.53458997844E+03  0.53541169181E+03  0.47000000000E+01 0. -1.
        -11    1    6    6    0    0  0.68719228294E+02  0.32785685097E+01  0.17867110389E+03  0.19145872849E+03  0.00000000000E+00 0.  1.
         12    1    6    6    0    0 -0.49121507782E+01 -0.35093801703E+02  0.63312385443E+02  0.72554547023E+02  0.00000000000E+00 0. -1.
         -5    1    3    3    0  503 -0.27927551167E+02 -0.60913676001E+02 -0.89011818701E+02  0.11151510170E+03  0.47000000000E+01 0.  1.
         11    1    4    4    0    0 -0.49483800608E+02  0.26069734478E+02 -0.86589866395E+02  0.10308289160E+03  0.00000000000E+00 0. -1.
        -12    1    4    4    0    0 -0.19310689712E+01  0.41843901241E+02 -0.23163006150E+03  0.23538718420E+03  0.00000000000E+00 0.  1.
</event>
<event>
12    1  0.8297444E-002  0.1832668E+03  0.7818608E-02  0.1165085E+00
         21   -1    0    0  501  502  0.00000000000E+00  0.00000000000E+00  0.56739618936E+03  0.56739618936E+03  0.00000000000E+00 0. -1.
         21   -1    0    0  502  503 -0.00000000000E+00 -0.00000000000E+00 -0.11847432966E+03  0.11847432966E+03  0.00000000000E+00 0. -1.
         -6    2    1    2    0  503 -0.49883948152E+02  0.32412787210E+02 -0.18721440858E+02  0.18422052254E+03  0.17334275733E+03 0.  0.
        -24    2    3    3    0    0 -0.99004085052E+02  0.21960058082E+02  0.31555165221E+01  0.12924108402E+03  0.80057776053E+02 0.  0.
          6    2    1    2  501    0  0.49883948152E+02 -0.32412787210E+02  0.46764330056E+03  0.50164999648E+03  0.17153269472E+03 0.  0.
         24    2    5    5    0    0  0.48078608373E+02  0.32986929454E+02  0.16937327502E+03  0.19625274646E+03  0.80175707679E+02 0.  0.
          5    1    5    5  501    0  0.18053397786E+01 -0.65399716664E+02  0.29827002553E+03  0.30539725003E+03  0.47000000000E+01 0. -1.
        -13    1    6    6    0    0  0.36437957928E+02  0.13684986730E+02  0.17431425721E+02  0.42648074311E+02  0.00000000000E+00 0.  1.
         14    1    6    6    0    0  0.11640650445E+02  0.19301942723E+02  0.15194184930E+03  0.15360467214E+03  0.00000000000E+00 0. -1.
         -5    1    3    3    0  503  0.49120136901E+02  0.10452729128E+02 -0.21876957380E+02  0.54979438516E+02  0.47000000000E+01 0.  1.
         11    1    4    4    0    0 -0.41013044643E+02  0.36839880473E+02  0.30962331247E+02  0.63229048549E+02  0.00000000000E+00 0. -1.
        -12    1    4    4    0    0 -0.57991040409E+02 -0.14879822391E+02 -0.27806814724E+02  0.66012035472E+02  0.00000000000E+00 0.  1.
</event>
<event>
12    1  0.8297444E-002  0.1920178E+03  0.7818608E-02  0.1156910E+00
         21   -1    0    0  501  502  0.00000000000E+00  0.00000000000E+00  0.15622049117E+03  0.15622049117E+03  0.00000000000E+00 0. -1.
         21   -1    0    0  502  503 -0.00000000000E+00 -0.00000000000E+00 -0.23515934130E+03  0.23515934130E+03  0.00000000000E+00 0.  1.
         -6    2    1    2    0  503 -0.77403110091E+02  0.34222830534E+02 -0.30111775747E+02  0.19436447577E+03  0.17236121031E+03 0.  0.
        -24    2    3    3    0    0 -0.64973953514E+02  0.21739134896E+02  0.46490823691E+02  0.11562201689E+03  0.80702227232E+02 0.  0.
          6    2    1    2  501    0  0.77403110091E+02 -0.34222830534E+02 -0.48827074386E+02  0.19701535670E+03  0.17108046060E+03 0.  0.
         24    2    5    5    0    0  0.58484367449E+02 -0.85883649825E+02 -0.54048564900E+02  0.14155263916E+03  0.79495155470E+02 0.  0.
          5    1    5    5  501    0  0.18918742642E+02  0.51660819291E+02  0.52214905135E+01  0.55462717533E+02  0.47000000000E+01 0. -1.
        -11    1    6    6    0    0  0.52959345175E+02 -0.24646835462E+02  0.18678779060E+01  0.58443542908E+02  0.00000000000E+00 0.  1.
         12    1    6    6    0    0  0.55250222738E+01 -0.61236814363E+02 -0.55916442806E+02  0.83109096256E+02  0.00000000000E+00 0. -1.
         -5    1    3    3    0  503 -0.12429156577E+02  0.12483695638E+02 -0.76602599437E+02  0.78742458881E+02  0.47000000000E+01 0.  1.
         13    1    4    4    0    0 -0.54175593681E+02  0.30545549454E+01 -0.99767265724E+01  0.55171191121E+02  0.00000000000E+00 0. -1.
        -14    1    4    4    0    0 -0.10798359832E+02  0.18684579950E+02  0.56467550263E+02  0.60450825765E+02  0.00000000000E+00 0.  1.
</event>
<event>
12    1  0.8297444E-002  0.1731597E+03  0.7818608E-02  0.1174805E+00
         21   -1    0    0  501  502  0.00000000000E+00  0.00000000000E+00  0.14521024942E+04  0.14521024942E+04  0.00000000000E+00 0. -1.
         21   -1    0    0  502  503 -0.00000000000E+00 -0.00000000000E+00 -0.39128655934E+02  0.39128655934E+02  0.00000000000E+00 0. -1.
         -6    2    1    2    0  503  0.21400217445E+02 -0.33820695833E+01  0.19180759841E+03  0.25784910756E+03  0.17095788884E+03 0.  0.
        -24    2    3    3    0    0 -0.39027267084E+02 -0.23251959427E+02  0.56181681491E+02  0.10797324976E+03  0.80237523240E+02 0.  0.
          6    2    1    2  501    0 -0.21400217445E+02  0.33820695833E+01  0.12211662399E+04  0.12333820426E+04  0.17179892285E+03 0.  0.
         24    2    5    5    0    0  0.36695093804E+02  0.55035212750E+01  0.36468096337E+03  0.37491324024E+03  0.78682361492E+02 0.  0.
          5    1    5    5  501    0 -0.58095311249E+02 -0.21214516917E+01  0.85648527650E+03  0.85846880235E+03  0.47000000000E+01 0. -1.
        -11    1    6    6    0    0 -0.24497515624E+02  0.17666624822E+00  0.13244052386E+03  0.13468723712E+03  0.00000000000E+00 0.  1.
         12    1    6    6    0    0  0.61192609428E+02  0.53268550268E+01  0.23224043951E+03  0.24022600312E+03  0.00000000000E+00 0. -1.
         -5    1    3    3    0  503  0.60427484529E+02  0.19869889844E+02  0.13562591692E+03  0.14987585779E+03  0.47000000000E+01 0.  1.
         13    1    4    4    0    0 -0.31501959841E+02 -0.52716761318E+02  0.42124832990E+02  0.74471014174E+02  0.00000000000E+00 0. -1.
        -14    1    4    4    0    0 -0.75253072424E+01  0.29464801891E+02  0.14056848501E+02  0.33502235587E+02  0.00000000000E+00 0.  1.
</event>
<event>
12    1  0.8297444E-002  0.1795662E+03  0.7818608E-02  0.1168468E+00
         21   -1    0    0  501  502  0.00000000000E+00  0.00000000000E+00  0.55519960602E+02  0.55519960602E+02  0.00000000000E+00 0. -1.
         21   -1    0    0  502  503 -0.00000000000E+00 -0.00000000000E+00 -0.12364472012E+04  0.12364472012E+04  0.00000000000E+00 0. -1.
         -6    2    1    2    0  503  0.46144598092E+02 -0.21928707226E+02 -0.10628139458E+04  0.10778763779E+04  0.17214473712E+03 0.  0.
        -24    2    3    3    0    0  0.95382910510E+02  0.64898728014E+01 -0.67435593705E+03  0.68525220435E+03  0.75330177597E+02 0.  0.
          6    2    1    2  501    0 -0.46144598092E+02  0.21928707226E+02 -0.11811329482E+03  0.21409078393E+03  0.17109623378E+03 0.  0.
         24    2    5    5    0    0 -0.31754854981E+02  0.34903922903E+02  0.11467695628E+01  0.93175632326E+02  0.80335102727E+02 0.  0.
          5    1    5    5  501    0 -0.14389743112E+02 -0.12975215678E+02 -0.11926006439E+03  0.12091515160E+03  0.47000000000E+01 0. -1.
        -13    1    6    6    0    0  0.18381807414E+02  0.16237043344E+02 -0.23773671859E+02  0.34157281713E+02  0.00000000000E+00 0.  1.
         14    1    6    6    0    0 -0.50136662394E+02  0.18666879560E+02  0.24920441422E+02  0.59018350614E+02  0.00000000000E+00 0. -1.
         -5    1    3    3    0  503 -0.49238312418E+02 -0.28418580027E+02 -0.38845800874E+03  0.39262417355E+03  0.47000000000E+01 0.  1.
         11    1    4    4    0    0  0.26500017688E+02 -0.32491523697E+02 -0.26800991845E+03  0.27126973004E+03  0.00000000000E+00 0. -1.
        -12    1    4    4    0    0  0.68882892823E+02  0.38981396499E+02 -0.40634601861E+03  0.41398247431E+03  0.00000000000E+00 0.  1.
</event>
<event>
12    1  0.8297444E-002  0.1823207E+03  0.7818608E-02  0.1168451E+00
         21   -1    0    0  503  502  0.00000000000E+00  0.00000000000E+00  0.16800549966E+03  0.16800549966E+03  0.00000000000E+00 0. -1.
         21   -1    0    0  501  503 -0.00000000000E+00 -0.00000000000E+00 -0.20389684094E+03  0.20389684094E+03  0.00000000000E+00 0. -1.
          6    2    1    2  501    0  0.25679103352E+02  0.49409571224E+02  0.37494901307E+02  0.18613622892E+03  0.17360906087E+03 0.  0.
         24    2    3    3    0    0 -0.34333254659E+02  0.19425167154E+02 -0.25451992740E+02  0.94022445637E+02  0.81463530826E+02 0.  0.
         -6    2    1    2    0  502 -0.25679103352E+02 -0.49409571224E+02 -0.73386242590E+02  0.18576611168E+03  0.16131579454E+03 0.  0.
        -24    2    5    5    0    0 -0.51836167950E+02  0.19604191530E+02 -0.42358392726E+02  0.10556692873E+03  0.79239071007E+02 0.  0.
          5    1    3    3  501    0  0.60012358011E+02  0.29984404070E+02  0.62946894046E+02  0.92113783288E+02  0.47000000000E+01 0. -1.
        -13    1    4    4    0    0 -0.49300930306E+02  0.40859460660E+02 -0.21714379785E+02  0.67613545565E+02  0.00000000000E+00 0.  1.
         14    1    4    4    0    0  0.14967675647E+02 -0.21434293507E+02 -0.37376129547E+01  0.26408900071E+02  0.00000000000E+00 0. -1.
         -5    1    5    5    0  502  0.26157064598E+02 -0.69013762754E+02 -0.31027849864E+02  0.80199182945E+02  0.47000000000E+01 0.  1.
         11    1    6    6    0    0 -0.20390048975E+02 -0.13923810309E+01  0.22559224194E+02  0.30440292679E+02  0.00000000000E+00 0. -1.
        -12    1    6    6    0    0 -0.31446118975E+02  0.20996572561E+02 -0.64917616920E+02  0.75126636052E+02  0.00000000000E+00 0.  1.
</event>
<event>
12    1  0.8297444E-002  0.1853686E+03  0.7818608E-02  0.1163281E+00
         21   -1    0    0  501  502  0.00000000000E+00  0.00000000000E+00  0.85255429434E+03  0.85255429434E+03  0.00000000000E+00 0.  1.
         21   -1    0    0  502  503 -0.00000000000E+00 -0.00000000000E+00 -0.75021547529E+02  0.75021547529E+02  0.00000000000E+00 0. -1.
         -6    2    1    2    0  503 -0.38015358309E+01 -0.64094693574E+02  0.69490321020E+02  0.19567037998E+03  0.17127583445E+03 0.  0.
        -24    2    3    3    0    0  0.35378460243E+02 -0.97839797394E+02  0.49232816237E+02  0.13993654264E+03  0.79587086696E+02 0.  0.
          6    2    1    2  501    0  0.38015358309E+01  0.64094693574E+02  0.70804242579E+03  0.73190546189E+03  0.17389349328E+03 0.  0.
         24    2    5    5    0    0 -0.47506417654E+02  0.61046652158E+02  0.28768377870E+03  0.30839007984E+03  0.79742907899E+02 0.  0.
          5    1    5    5  501    0  0.51307953485E+02  0.30480414164E+01  0.42035864709E+03  0.42351538205E+03  0.47000000000E+01 0. -1.
        -11    1    6    6    0    0 -0.31164143740E+02  0.54110711242E+02  0.28330478479E+03  0.29010476386E+03  0.00000000000E+00 0.  1.
         12    1    6    6    0    0 -0.16342273914E+02  0.69359409162E+01  0.43789939079E+01  0.18285315986E+02  0.00000000000E+00 0. -1.
         -5    1    3    3    0  503 -0.39179996074E+02  0.33745103820E+02  0.20257504783E+02  0.55733837336E+02  0.47000000000E+01 0.  1.
         11    1    4    4    0    0 -0.15612154185E+02 -0.50872179136E+02 -0.27526056961E+01  0.53285033607E+02  0.00000000000E+00 0. -1.
        -12    1    4    4    0    0  0.50990614428E+02 -0.46967618258E+02  0.51985421933E+02  0.86651509035E+02  0.00000000000E+00 0.  1.
</event>
<event>
12    1  0.8297444E-002  0.2230390E+03  0.7818608E-02  0.1131908E+00
         21   -1    0    0  503  502  0.00000000000E+00  0.00000000000E+00  0.20976414899E+03  0.20976414899E+03  0.00000000000E+00 0. -1.
         21   -1    0    0  501  503 -0.00000000000E+00 -0.00000000000E+00 -0.33747405505E+03  0.33747405505E+03  0.00000000000E+00 0.  1.
          6    2    1    2  501    0 -0.52846779479E+02 -0.13038511796E+03 -0.21434417974E+03  0.30933769153E+03  0.17307027164E+03 0.  0.
         24    2    3    3    0    0 -0.11045256102E+02 -0.36574121034E+02 -0.18081483969E+03  0.20119807277E+03  0.79542405187E+02 0.  0.
         -6    2    1    2    0  502  0.52846779479E+02  0.13038511796E+03  0.86634273671E+02  0.23790051252E+03  0.17116686418E+03 0.  0.
        -24    2    5    5    0    0  0.38956178422E+02  0.77082922641E+02  0.12395629013E+03  0.17119897028E+03  0.80526795302E+02 0.  0.
          5    1    3    3  501    0 -0.41801523377E+02 -0.93810996926E+02 -0.33529340051E+02  0.10813961876E+03  0.47000000000E+01 0. -1.
        -13    1    4    4    0    0 -0.14909135108E+02 -0.44067652454E+02 -0.18571046213E+03  0.19144872955E+03  0.00000000000E+00 0.  1.
         14    1    4    4    0    0  0.38638790064E+01  0.74935314199E+01  0.48956224408E+01  0.97493432188E+01  0.00000000000E+00 0. -1.
         -5    1    5    5    0  502  0.13890601057E+02  0.53302195319E+02 -0.37322016464E+02  0.66701542235E+02  0.47000000000E+01 0.  1.
         13    1    6    6    0    0 -0.53052701150E+01 -0.14710811481E+02  0.22481009508E+02  0.27385208671E+02  0.00000000000E+00 0. -1.
        -14    1    6    6    0    0  0.44261448537E+02  0.91793734122E+02  0.10147528063E+03  0.14381376161E+03  0.00000000000E+00 0.  1.
</event>
<event>
12    1  0.8297444E-002  0.3074258E+03  0.7818608E-02  0.1081682E+00
         21   -1    0    0  501  502  0.00000000000E+00  0.00000000000E+00  0.24053200024E+03  0.24053200024E+03  0.00000000000E+00 0. -1.
         21   -1    0    0  502  503 -0.00000000000E+00 -0.00000000000E+00 -0.46558703279E+03  0.46558703279E+03  0.00000000000E+00 0.  1.
         -6    2    1    2    0  503 -0.29131074090E+02 -0.25165978821E+03 -0.25308585040E+03  0.39819978752E+03  0.17415325041E+03 0.  0.
        -24    2    3    3    0    0  0.44589365712E+02 -0.16926601977E+03 -0.18815546395E+03  0.26989748275E+03  0.82480152779E+02 0.  0.
          6    2    1    2  501    0  0.29131074090E+02  0.25165978821E+03  0.28030817850E+02  0.30791924552E+03  0.17276361461E+03 0.  0.
         24    2    5    5    0    0  0.83500325633E+02  0.15173379600E+03  0.10176272656E+02  0.19267127714E+03  0.83804625638E+02 0.  0.
          5    1    5    5  501    0 -0.54369251543E+02  0.99925992206E+02  0.17854545194E+02  0.11524796838E+03  0.47000000000E+01 0. -1.
        -11    1    6    6    0    0  0.10523255582E+02 -0.10171503173E+02 -0.13992791647E+01  0.14702257208E+02  0.00000000000E+00 0.  1.
         12    1    6    6    0    0  0.72977070051E+02  0.16190529918E+03  0.11575551821E+02  0.17796901993E+03  0.00000000000E+00 0. -1.
         -5    1    3    3    0  503 -0.73720439803E+02 -0.82393768442E+02 -0.64930386451E+02  0.12830230476E+03  0.47000000000E+01 0.  1.
         11    1    4    4    0    0  0.33175292374E+02 -0.26363425519E+02 -0.79239084115E+02  0.89858014003E+02  0.00000000000E+00 0. -1.
        -12    1    4    4    0    0  0.11414073339E+02 -0.14290259425E+03 -0.10891637983E+03  0.18003946875E+03  0.00000000000E+00 0.  1.
</event>
<event>
12    1  0.8297444E-002  0.1755683E+03  0.7818608E-02  0.1172403E+00
         21   -1    0    0  503  502  0.00000000000E+00  0.00000000000E+00  0.13085587152E+03  0.13085587152E+03  0.00000000000E+00 0. -1.
         21   -1    0    0  501  503 -0.00000000000E+00 -0.00000000000E+00 -0.24847815629E+03  0.24847815629E+03  0.00000000000E+00 0. -1.
          6    2    1    2  501    0 -0.25037833266E+02 -0.19697110376E+02 -0.10400682724E+03  0.20323861219E+03  0.17167889830E+03 0.  0.
         24    2    3    3    0    0  0.46214366985E+01 -0.25223252063E+01  0.18610736457E+02  0.75834520938E+02  0.73326633994E+02 0.  0.
         -6    2    1    2    0  502  0.25037833266E+02  0.19697110376E+02 -0.13615457537E+02  0.17609541563E+03  0.17265383132E+03 0.  0.
        -24    2    5    5    0    0 -0.47449519535E+02 -0.88732520923E+00  0.16868789417E+02  0.94673584299E+02  0.80164126999E+02 0.  0.
          5    1    3    3  501    0 -0.29659269965E+02 -0.17174785170E+02 -0.12261756370E+03  0.12740409125E+03  0.47000000000E+01 0. -1.
        -11    1    4    4    0    0  0.49832064714E+01  0.34354770460E+02  0.17648886630E+02  0.38943109780E+02  0.00000000000E+00 0.  1.
         12    1    4    4    0    0 -0.36176977297E+00 -0.36877095666E+02  0.96184982708E+00  0.36891411158E+02  0.00000000000E+00 0. -1.
         -5    1    5    5    0  502  0.72487352801E+02  0.20584435585E+02 -0.30484246954E+02  0.81421831328E+02  0.47000000000E+01 0.  1.
         11    1    6    6    0    0 -0.51430917263E+01 -0.35721792206E+02 -0.33849387729E+01  0.36248526058E+02  0.00000000000E+00 0. -1.
        -12    1    6    6    0    0 -0.42306427809E+02  0.34834466996E+02  0.20253728190E+02  0.58425058241E+02  0.00000000000E+00 0.  1.
</event>
<event>
12    1  0.8297444E-002  0.2015389E+03  0.7818608E-02  0.1148936E+00
         21   -1    0    0  503  502  0.00000000000E+00  0.00000000000E+00  0.14800055863E+03  0.14800055863E+03  0.00000000000E+00 0. -1.
         21   -1    0    0  501  503 -0.00000000000E+00 -0.00000000000E+00 -0.50887633834E+03  0.50887633834E+03  0.00000000000E+00 0. -1.
          6    2    1    2  501    0 -0.10794619998E+03  0.42781139795E+01 -0.40541433663E+03  0.45274576388E+03  0.17013893739E+03 0.  0.
         24    2    3    3    0    0 -0.85378252145E+02  0.24425195002E+02 -0.40469464203E+03  0.42212183363E+03  0.80765419917E+02 0.  0.
         -6    2    1    2    0  502  0.10794619998E+03 -0.42781139795E+01  0.44538556920E+02  0.20413113309E+03  0.16737727473E+03 0.  0.
        -24    2    5    5    0    0  0.93352722242E+02  0.28903486076E+02  0.81353763880E+02  0.15225206566E+03  0.83738368395E+02 0.  0.
          5    1    3    3  501    0 -0.22567947835E+02 -0.20147081023E+02 -0.71969460041E+00  0.30623930243E+02  0.47000000000E+01 0. -1.
        -11    1    4    4    0    0  0.72673194011E+01  0.20729925272E+02 -0.38055152674E+02  0.43940168162E+02  0.00000000000E+00 0.  1.
         12    1    4    4    0    0 -0.92645571546E+02  0.36952697299E+01 -0.36663948935E+03  0.37818166547E+03  0.00000000000E+00 0. -1.
         -5    1    5    5    0  502  0.14593477738E+02 -0.33181600056E+02 -0.36815206960E+02  0.51879067438E+02  0.47000000000E+01 0.  1.
         11    1    6    6    0    0  0.36674174539E+02  0.21430080936E+02  0.84941983906E+02  0.94970437911E+02  0.00000000000E+00 0. -1.
        -12    1    6    6    0    0  0.56678547703E+02  0.74734051402E+01 -0.35882200261E+01  0.57281627745E+02  0.00000000000E+00 0.  1.
</event>
<event>
12    1  0.8297444E-002  0.1738782E+03  0.7818608E-02  0.1174149E+00
         21   -1    0    0  503  502  0.00000000000E+00  0.00000000000E+00  0.39721556978E+03  0.39721556978E+03  0.00000000000E+00 0. -1.
         21   -1    0    0  501  503 -0.00000000000E+00 -0.00000000000E+00 -0.77960783054E+02  0.77960783054E+02  0.00000000000E+00 0. -1.
          6    2    1    2  501    0 -0.23152735456E+01 -0.11558304130E+02  0.11796996211E+03  0.20918911699E+03  0.17234912191E+03 0.  0.
         24    2    3    3    0    0  0.44898235986E+02 -0.30769125402E+01  0.13070217578E+03  0.15933684773E+03  0.79245525469E+02 0.  0.
         -6    2    1    2    0  502  0.23152735456E+01  0.11558304130E+02  0.20128482462E+03  0.26598723584E+03  0.17347816612E+03 0.  0.
        -24    2    5    5    0    0 -0.73239396719E+01  0.51592038021E+02  0.44731531209E+02  0.10404083125E+03  0.78155013942E+02 0.  0.
          5    1    3    3  501    0 -0.47213509532E+02 -0.84813915896E+01 -0.12732213671E+02  0.49852269262E+02  0.47000000000E+01 0. -1.
        -11    1    4    4    0    0  0.82368166224E+01 -0.18171818890E+02 -0.27314361976E+01  0.20137549343E+02  0.00000000000E+00 0.  1.
         12    1    4    4    0    0  0.36661419364E+02  0.15094906349E+02  0.13343361197E+03  0.13919929839E+03  0.00000000000E+00 0. -1.
         -5    1    5    5    0  502  0.96392132175E+01 -0.40033733891E+02  0.15655329341E+03  0.16194640459E+03  0.47000000000E+01 0.  1.
         13    1    6    6    0    0  0.17219276834E+02  0.53522789583E+02  0.53787228166E+02  0.77809115232E+02  0.00000000000E+00 0. -1.
        -14    1    6    6    0    0 -0.24543216506E+02 -0.19307515622E+01 -0.90556969571E+01  0.26231716022E+02  0.00000000000E+00 0.  1.
</event>
<event>
12    1  0.8297444E-002  0.1818315E+03  0.7818608E-02  0.1166381E+00
         21   -1    0    0  503  502  0.00000000000E+00  0.00000000000E+00  0.87136007408E+03  0.87136007408E+03  0.00000000000E+00 0. -1.
         21   -1    0    0  501  503 -0.00000000000E+00 -0.00000000000E+00 -0.38311152125E+02  0.38311152125E+02  0.00000000000E+00 0. -1.
          6    2    1    2  501    0  0.15019682576E+02 -0.50988991924E+02  0.35513575293E+03  0.39833603725E+03  0.17240860593E+03 0.  0.
         24    2    3    3    0    0 -0.37219687007E+01 -0.23864246123E+02  0.35506181825E+03  0.36503293238E+03  0.81220635636E+02 0.  0.
         -6    2    1    2    0  502 -0.15019682576E+02  0.50988991924E+02  0.47791316902E+03  0.51133518896E+03  0.17388849926E+03 0.  0.
        -24    2    5    5    0    0 -0.40557626872E+02  0.95050290584E+02  0.36885355162E+03  0.39087907750E+03  0.77807659308E+02 0.  0.
          5    1    3    3  501    0  0.18741651276E+02 -0.27124745800E+02  0.73934681444E-01  0.33303104865E+02  0.47000000000E+01 0. -1.
        -13    1    4    4    0    0  0.21127909260E+02  0.17909684352E+02  0.61165856189E+02  0.67144674447E+02  0.00000000000E+00 0.  1.
         14    1    4    4    0    0 -0.24849877961E+02 -0.41773930475E+02  0.29389596206E+03  0.29788825794E+03  0.00000000000E+00 0. -1.
         -5    1    5    5    0  502  0.25537944297E+02 -0.44061298660E+02  0.10905961741E+03  0.12045611146E+03  0.47000000000E+01 0.  1.
         13    1    6    6    0    0  0.94276077864E+01  0.73772986962E+02  0.23233841199E+03  0.24395178024E+03  0.00000000000E+00 0. -1.
        -14    1    6    6    0    0 -0.49985234659E+02  0.21277303621E+02  0.13651513963E+03  0.14692729726E+03  0.00000000000E+00 0.  1.
</event>
<event>
12    1  0.8297444E-002  0.2566188E+03  0.7818608E-02  0.1109248E+00
         21   -1    0    0  503  502  0.00000000000E+00  0.00000000000E+00  0.18610163921E+03  0.18610163921E+03  0.00000000000E+00 0. -1.
         21   -1    0    0  501  503 -0.00000000000E+00 -0.00000000000E+00 -0.35548451454E+03  0.35548451454E+03  0.00000000000E+00 0. -1.
          6    2    1    2  501    0 -0.14913830422E+03  0.11868954619E+03 -0.63779678326E+02  0.26442593215E+03  0.17182486451E+03 0.  0.
         24    2    3    3    0    0 -0.13037673778E+03  0.10428691287E+03 -0.10796921746E+03  0.21408472049E+03  0.79379226991E+02 0.  0.
         -6    2    1    2    0  502  0.14913830422E+03 -0.11868954619E+03 -0.10560319699E+03  0.27716022160E+03  0.17127846059E+03 0.  0.
        -24    2    5    5    0    0  0.35860835425E+02 -0.93419595998E+01 -0.48112717476E+01  0.90158131171E+02  0.82049183749E+02 0.  0.
          5    1    3    3  501    0 -0.18761566448E+02  0.14402633317E+02  0.44189539137E+02  0.50341211658E+02  0.47000000000E+01 0. -1.
        -13    1    4    4    0    0  0.86457601620E+01  0.78761625164E+01  0.25938314652E+01  0.11979610446E+02  0.00000000000E+00 0.  1.
         14    1    4    4    0    0 -0.13902249794E+03  0.96410750357E+02 -0.11056304893E+03  0.20210511004E+03  0.00000000000E+00 0. -1.
         -5    1    5    5    0  502  0.11327746880E+03 -0.10934758659E+03 -0.10079192525E+03  0.18700209043E+03  0.47000000000E+01 0.  1.
         11    1    6    6    0    0  0.54680950757E+02  0.11575837451E+02 -0.18489514652E+02  0.58871627635E+02  0.00000000000E+00 0. -1.
        -12    1    6    6    0    0 -0.18820115331E+02 -0.20917797050E+02  0.13678242905E+02  0.31286503536E+02  0.00000000000E+00 0.  1.
</event>
<event>
12    1  0.8297444E-002  0.1785048E+03  0.7818608E-02  0.1169625E+00
         21   -1    0    0  501  502  0.00000000000E+00  0.00000000000E+00  0.13086371250E+03  0.13086371250E+03  0.00000000000E+00 0.  1.
         21   -1    0    0  502  503 -0.00000000000E+00 -0.00000000000E+00 -0.38110285375E+03  0.38110285375E+03  0.00000000000E+00 0.  1.
         -6    2    1    2    0  503  0.26988318929E+02  0.31218989256E+02  0.29501315603E+02  0.18092624942E+03  0.17366918397E+03 0.  0.
        -24    2    3    3    0    0  0.21685072884E+02 -0.61098454242E+01  0.81706528534E+02  0.11635814140E+03  0.79722566862E+02 0.  0.
          6    2    1    2  501    0 -0.26988318929E+02 -0.31218989256E+02 -0.27974045685E+03  0.33104031683E+03  0.17213359207E+03 0.  0.
         24    2    5    5    0    0 -0.26801019522E+01 -0.51241549940E+02 -0.67640532367E+02  0.11656360408E+03  0.79868346606E+02 0.  0.
          5    1    5    5  501    0 -0.24308216977E+02  0.20022560684E+02 -0.21209992448E+03  0.21447671275E+03  0.47000000000E+01 0. -1.
        -11    1    6    6    0    0 -0.21847068946E+02 -0.64813803411E+02 -0.36399522998E+02  0.77479344400E+02  0.00000000000E+00 0.  1.
         12    1    6    6    0    0  0.19166966994E+02  0.13572253471E+02 -0.31241009369E+02  0.39084259676E+02  0.00000000000E+00 0. -1.
         -5    1    3    3    0  503  0.53032460453E+01  0.37328834680E+02 -0.52205212931E+02  0.64568108028E+02  0.47000000000E+01 0.  1.
         11    1    4    4    0    0 -0.19318981500E+02 -0.29420408951E+02  0.41182659170E+02  0.54173747566E+02  0.00000000000E+00 0. -1.
        -12    1    4    4    0    0  0.41004054384E+02  0.23310563526E+02  0.40523869364E+02  0.62184393830E+02  0.00000000000E+00 0.  1.
</event>
<event>
12    1  0.8297444E-002  0.1910765E+03  0.7818608E-02  0.1157542E+00
         21   -1    0    0  501  502  0.00000000000E+00  0.00000000000E+00  0.11927161115E+04  0.11927161115E+04  0.00000000000E+00 0.  1.
         21   -1    0    0  502  503 -0.00000000000E+00 -0.00000000000E+00 -0.35936481022E+02  0.35936481022E+02  0.00000000000E+00 0.  1.
         -6    2    1    2    0  503  0.44074367374E+02  0.70801950311E+02  0.34087364182E+03  0.39067119579E+03  0.17167899553E+03 0.  0.
        -24    2    3    3    0    0  0.69156908819E+02  0.71913275081E+02  0.34191036251E+03  0.36510689025E+03  0.80287907866E+02 0.  0.
          6    2    1    2  501    0 -0.44074367374E+02 -0.70801950311E+02  0.81590598869E+03  0.83798139676E+03  0.17191501655E+03 0.  0.
         24    2    5    5    0    0  0.22245541583E+02 -0.89127440078E+02  0.49977000869E+03  0.51441038177E+03  0.80058819523E+02 0.  0.
          5    1    5    5  501    0 -0.66319908957E+02  0.18325489767E+02  0.31613597999E+03  0.32357101499E+03  0.47000000000E+01 0. -1.
        -11    1    6    6    0    0  0.11029588338E+02  0.13596962219E+02  0.98787914617E+02  0.10032737052E+03  0.00000000000E+00 0.  1.
         12    1    6    6    0    0  0.11215953245E+02 -0.10272440230E+03  0.40098209408E+03  0.41408301125E+03  0.00000000000E+00 0. -1.
         -5    1    3    3    0  503 -0.25082541445E+02 -0.11113247695E+01 -0.10367206815E+01  0.25564305542E+02  0.47000000000E+01 0.  1.
         11    1    4    4    0    0  0.24533686907E+01 -0.82831856344E-01  0.14567844580E+03  0.14569912646E+03  0.00000000000E+00 0. -1.
        -12    1    4    4    0    0  0.66703540129E+02  0.71996106937E+02  0.19623191670E+03  0.21940776379E+03  0.00000000000E+00 0.  1.
</event>
<event>
12    1  0.8297444E-002  0.2222906E+03  0.7818608E-02  0.1132330E+00
         21   -1    0    0  503  502  0.00000000000E+00  0.00000000000E+00  0.43443974706E+02  0.43443974706E+02  0.00000000000E+00 0. -1.
         21   -1    0    0  501  503 -0.00000000000E+00 -0.00000000000E+00 -0.24446143264E+04  0.24446143264E+04  0.00000000000E+00 0.  1.
          6    2    1    2  501    0  0.13142070181E+03  0.47026898585E+02 -0.21126444893E+04  0.21243069126E+04  0.17300344181E+03 0.  0.
         24    2    3    3    0    0  0.15379457648E+03  0.26460717219E+02 -0.19958065318E+04  0.20034898757E+04  0.79843776619E+02 0.  0.
         -6    2    1    2    0  502 -0.13142070181E+03 -0.47026898585E+02 -0.28852586245E+03  0.36375138852E+03  0.17200281768E+03 0.  0.
        -24    2    5    5    0    0  0.33374023669E+01 -0.17125651166E+02 -0.87827885637E+02  0.12012134288E+03  0.80068553991E+02 0.  0.
          5    1    3    3  501    0 -0.22373874669E+02  0.20566181366E+02 -0.11683795751E+03  0.12081703687E+03  0.47000000000E+01 0. -1.
        -13    1    4    4    0    0  0.11049860184E+03 -0.44318924613E+01 -0.96573954155E+03  0.97205063900E+03  0.00000000000E+00 0.  1.
         14    1    4    4    0    0  0.43295974643E+02  0.30892609681E+02 -0.10300669902E+04  0.10314392367E+04  0.00000000000E+00 0. -1.
         -5    1    5    5    0  502 -0.13475810418E+03 -0.29901247419E+02 -0.20069797681E+03  0.24363004563E+03  0.47000000000E+01 0.  1.
         11    1    6    6    0    0  0.20945769952E+01  0.17983774114E+02  0.66773796335E+01  0.19297429439E+02  0.00000000000E+00 0. -1.
        -12    1    6    6    0    0  0.12428253717E+01 -0.35109425281E+02 -0.94505265271E+02  0.10082391344E+03  0.00000000000E+00 0.  1.
</event>
<event>
12    1  0.8297444E-002  0.2227311E+03  0.7818608E-02  0.1132271E+00
         21   -1    0    0  503  502  0.00000000000E+00  0.00000000000E+00  0.14794996006E+04  0.14794996006E+04  0.00000000000E+00 0.  1.
         21   -1    0    0  501  503 -0.00000000000E+00 -0.00000000000E+00 -0.33552959298E+02  0.33552959298E+02  0.00000000000E+00 0.  1.
          6    2    1    2  501    0 -0.72143699757E+02  0.11933161552E+03  0.64172647433E+03  0.67855916919E+03  0.17083597503E+03 0.  0.
         24    2    3    3    0    0 -0.89767632685E+02  0.13401911662E+03  0.62392316725E+03  0.64914193881E+03  0.78011451703E+02 0.  0.
         -6    2    1    2    0  502  0.72143699757E+02 -0.11933161552E+03  0.80422016693E+03  0.83449339066E+03  0.17367899782E+03 0.  0.
        -24    2    5    5    0    0 -0.44079177538E+01 -0.74694517942E+02  0.24400362974E+03  0.26729212201E+03  0.79426736122E+02 0.  0.
          5    1    3    3  501    0  0.17623932928E+02 -0.14687501098E+02  0.17803307076E+02  0.29417230379E+02  0.47000000000E+01 0. -1.
        -11    1    4    4    0    0 -0.65415052317E+02  0.32048600809E+02  0.29791807690E+03  0.30669434691E+03  0.00000000000E+00 0.  1.
         12    1    4    4    0    0 -0.24352580368E+02  0.10197051581E+03  0.32600509035E+03  0.34244759190E+03  0.00000000000E+00 0. -1.
         -5    1    5    5    0  502  0.76551617511E+02 -0.44637097576E+02  0.56021653719E+03  0.56720126866E+03  0.47000000000E+01 0.  1.
         11    1    6    6    0    0  0.35646527129E+02 -0.22441864196E+02  0.76800814408E+02  0.87593819751E+02  0.00000000000E+00 0. -1.
        -12    1    6    6    0    0 -0.40054444883E+02 -0.52252653746E+02  0.16720281533E+03  0.17969830226E+03  0.00000000000E+00 0.  1.
</event>
<event>
12    1  0.8297444E-002  0.1744428E+03  0.7818608E-02  0.1173849E+00
         21   -1    0    0  503  502  0.00000000000E+00  0.00000000000E+00  0.11725700616E+03  0.11725700616E+03  0.00000000000E+00 0.  1.
         21   -1    0    0  501  503 -0.00000000000E+00 -0.00000000000E+00 -0.52516024843E+03  0.52516024843E+03  0.00000000000E+00 0.  1.
          6    2    1    2  501    0 -0.19593525770E+01 -0.28084496236E+02 -0.43442236288E+03  0.46813790190E+03  0.17215611470E+03 0.  0.
         24    2    3    3    0    0  0.21887023181E+02 -0.36299796614E+02 -0.43321290956E+03  0.44245340123E+03  0.79340218284E+02 0.  0.
         -6    2    1    2    0  502  0.19593525770E+01  0.28084496236E+02  0.26519120613E+02  0.17427935268E+03  0.16993366654E+03 0.  0.
        -24    2    5    5    0    0 -0.34982887363E+02  0.43927132138E+02 -0.31934308458E+02  0.10318356115E+03  0.80459007502E+02 0.  0.
          5    1    3    3  501    0 -0.23846375758E+02  0.82153003772E+01 -0.12094533260E+01  0.25684500665E+02  0.47000000000E+01 0. -1.
        -13    1    4    4    0    0 -0.49173654652E+01 -0.10817108324E+02 -0.36212751958E+03  0.36232241272E+03  0.00000000000E+00 0.  1.
         14    1    4    4    0    0  0.26804388646E+02 -0.25482688290E+02 -0.71085389973E+02  0.80130988517E+02  0.00000000000E+00 0. -1.
         -5    1    5    5    0  502  0.36942239940E+02 -0.15842635902E+02  0.58453429071E+02  0.71095791537E+02  0.47000000000E+01 0.  1.
         13    1    6    6    0    0 -0.34558338753E+02 -0.10039053660E+02  0.69688180313E+01  0.36655501640E+02  0.00000000000E+00 0. -1.
        -14    1    6    6    0    0 -0.42454861068E+00  0.53966185798E+02 -0.38903126490E+02  0.66528059507E+02  0.00000000000E+00 0.  1.
</event>
<event>
12    1  0.8297444E-002  0.1741641E+03  0.7818608E-02  0.1173842E+00
         21   -1    0    0  503  502  0.00000000000E+00  0.00000000000E+00  0.15901849111E+03  0.15901849111E+03  0.00000000000E+00 0.  1.
         21   -1    0    0  501  503 -0.00000000000E+00 -0.00000000000E+00 -0.19508631878E+03  0.19508631878E+03  0.00000000000E+00 0.  1.
          6    2    1    2  501    0  0.13114027583E+02 -0.98614629866E+00 -0.47689914995E+02  0.17955341403E+03  0.17260402745E+03 0.  0.
         24    2    3    3    0    0 -0.39187792542E+02  0.32420693163E+02  0.13459318096E+02  0.92301961212E+02  0.75840057822E+02 0.  0.
         -6    2    1    2    0  502 -0.13114027583E+02  0.98614629866E+00  0.11622087326E+02  0.17455139587E+03  0.17366682666E+03 0.  0.
        -24    2    5    5    0    0 -0.38883197022E+01 -0.68960386074E+01 -0.61323547333E+02  0.10045417500E+03  0.79169371843E+02 0.  0.
          5    1    3    3  501    0  0.52301820125E+02 -0.33406839462E+02 -0.61149233091E+02  0.87251452818E+02  0.47000000000E+01 0. -1.
        -11    1    4    4    0    0 -0.47256577102E+02  0.20798190771E+02 -0.20470038054E+02  0.55540717286E+02  0.00000000000E+00 0.  1.
         12    1    4    4    0    0  0.80687845603E+01  0.11622502392E+02  0.33929356151E+02  0.36761243925E+02  0.00000000000E+00 0. -1.
         -5    1    5    5    0  502 -0.92257078812E+01  0.78821849060E+01  0.72945634659E+02  0.74097220870E+02  0.47000000000E+01 0.  1.
         13    1    6    6    0    0  0.34054066611E+02  0.12872749170E+02 -0.23361625210E+02  0.43256822080E+02  0.00000000000E+00 0. -1.
        -14    1    6    6    0    0 -0.37942386314E+02 -0.19768787777E+02 -0.37961922123E+02  0.57197352916E+02  0.00000000000E+00 0.  1.
</event>
<event>
12    1  0.8297444E-002  0.2081913E+03  0.7818608E-02  0.1144317E+00
         21   -1    0    0  503  502  0.00000000000E+00  0.00000000000E+00  0.19918446200E+03  0.19918446200E+03  0.00000000000E+00 0. -1.
         21   -1    0    0  501  503 -0.00000000000E+00 -0.00000000000E+00 -0.26332666865E+03  0.26332666865E+03  0.00000000000E+00 0.  1.
          6    2    1    2  501    0  0.76615062494E+02 -0.78340810592E+02 -0.13481432474E+03  0.24265166190E+03  0.16940418078E+03 0.  0.
         24    2    3    3    0    0 -0.62921581684E+01 -0.83159725936E+02 -0.86534160264E+02  0.14647529545E+03  0.83736013824E+02 0.  0.
         -6    2    1    2    0  502 -0.76615062494E+02  0.78340810592E+02  0.70672118085E+02  0.21985946874E+03  0.17702114935E+03 0.  0.
        -24    2    5    5    0    0 -0.30400518481E+01 -0.86978257167E+01  0.60990873027E+02  0.10538317029E+03  0.85444905640E+02 0.  0.
          5    1    3    3  501    0  0.82907220663E+02  0.48189153436E+01 -0.48280164473E+02  0.96176366456E+02  0.47000000000E+01 0. -1.
        -13    1    4    4    0    0  0.20673756141E+02  0.69684958560E+01 -0.28675725072E+02  0.36031393755E+02  0.00000000000E+00 0.  1.
         14    1    4    4    0    0 -0.26965914310E+02 -0.90128221792E+02 -0.57858435192E+02  0.11044390169E+03  0.00000000000E+00 0. -1.
         -5    1    5    5    0  502 -0.73575010646E+02  0.87038636309E+02  0.96812450574E+01  0.11447629846E+03  0.47000000000E+01 0.  1.
         13    1    6    6    0    0  0.23785602114E+02  0.21617780849E+02  0.56037510256E+02  0.64600974237E+02  0.00000000000E+00 0. -1.
        -14    1    6    6    0    0 -0.26825653962E+02 -0.30315606566E+02  0.49533627718E+01  0.40782196051E+02  0.00000000000E+00 0.  1.
</event>
<event>
12    1  0.8297444E-002  0.1820350E+03  0.7818608E-02  0.1166215E+00
         21   -1    0    0  503  502  0.00000000000E+00  0.00000000000E+00  0.50675960678E+03  0.50675960678E+03  0.00000000000E+00 0. -1.
         21   -1    0    0  501  503 -0.00000000000E+00 -0.00000000000E+00 -0.64966712569E+02  0.64966712569E+02  0.00000000000E+00 0. -1.
          6    2    1    2  501    0 -0.22216130607E+02  0.48728438457E+02  0.20921075869E+03  0.27731910061E+03  0.17397909310E+03 0.  0.
         24    2    3    3    0    0 -0.26043030735E+02  0.96692025573E+01  0.23518078040E+02  0.87466181952E+02  0.79533012408E+02 0.  0.
         -6    2    1    2    0  502  0.22216130607E+02 -0.48728438457E+02  0.23258213552E+03  0.29440721874E+03  0.17237500837E+03 0.  0.
        -24    2    5    5    0    0 -0.16953852319E+01 -0.94149656992E+02  0.12910163952E+03  0.17879947361E+03  0.80218365684E+02 0.  0.
          5    1    3    3  501    0  0.38269001286E+01  0.39059235900E+02  0.18569268065E+03  0.18985291865E+03  0.47000000000E+01 0. -1.
        -11    1    4    4    0    0  0.12917927010E+02 -0.86734501284E+01  0.38775064672E+02  0.41780464522E+02  0.00000000000E+00 0.  1.
         12    1    4    4    0    0 -0.38960957745E+02  0.18342652686E+02 -0.15256986633E+02  0.45685717430E+02  0.00000000000E+00 0. -1.
         -5    1    5    5    0  502  0.23911515838E+02  0.45421218535E+02  0.10348049600E+03  0.11560774514E+03  0.47000000000E+01 0.  1.
         13    1    6    6    0    0  0.33844719013E+02 -0.70692246131E+02  0.64898202663E+02  0.10175772883E+03  0.00000000000E+00 0. -1.
        -14    1    6    6    0    0 -0.35540104245E+02 -0.23457410861E+02  0.64203436854E+02  0.77041744774E+02  0.00000000000E+00 0.  1.
</event>
<event>
12    1  0.8297444E-002  0.1979288E+03  0.7818608E-02  0.1151502E+00
         21   -1    0    0  503  502  0.00000000000E+00  0.00000000000E+00  0.34081496798E+03  0.34081496798E+03  0.00000000000E+00 0.  1.
         21   -1    0    0  501  503 -0.00000000000E+00 -0.00000000000E+00 -0.17656717404E+03  0.17656717404E+03  0.00000000000E+00 0. -1.
          6    2    1    2  501    0 -0.78009653713E+02 -0.55317805304E+02 -0.70707230607E+02  0.21017923678E+03  0.17329233525E+03 0.  0.
         24    2    3    3    0    0 -0.40667194350E+02  0.37254396898E+02 -0.77429007060E+01  0.92066287734E+02  0.73311240893E+02 0.  0.
         -6    2    1    2    0  502  0.78009653713E+02  0.55317805304E+02  0.23495502455E+03  0.30720290523E+03  0.17327491385E+03 0.  0.
        -24    2    5    5    0    0  0.58314673520E+01  0.66248776508E+02  0.71413266785E+02  0.12804606543E+03  0.82903762270E+02 0.  0.
          5    1    3    3  501    0 -0.37342459364E+02 -0.92572202202E+02 -0.62964329901E+02  0.11811294904E+03  0.47000000000E+01 0. -1.
        -13    1    4    4    0    0 -0.44117451163E+02  0.29433074018E+02  0.24708497907E+02  0.58507821803E+02  0.00000000000E+00 0.  1.
         14    1    4    4    0    0  0.34502568137E+01  0.78213228795E+01 -0.32451398613E+02  0.33558465931E+02  0.00000000000E+00 0. -1.
         -5    1    5    5    0  502  0.72178186361E+02 -0.10930971204E+02  0.16354175776E+03  0.17915683981E+03  0.47000000000E+01 0.  1.
         13    1    6    6    0    0 -0.38552690951E+02  0.34026005361E+02  0.35599231718E+02  0.62541061066E+02  0.00000000000E+00 0. -1.
        -14    1    6    6    0    0  0.44384158303E+02  0.32222771147E+02  0.35814035067E+02  0.65505004362E+02  0.00000000000E+00 0.  1.
</event>
<event>
12    1  0.8297444E-002  0.1948664E+03  0.7818608E-02  0.1154426E+00
         21   -1    0    0  503  502  0.00000000000E+00  0.00000000000E+00  0.69777840758E+03  0.69777840758E+03  0.00000000000E+00 0. -1.
         21   -1    0    0  501  503 -0.00000000000E+00 -0.00000000000E+00 -0.15000978966E+03  0.15000978966E+03  0.00000000000E+00 0.  1.
          6    2    1    2  501    0 -0.63013140439E+02 -0.66265256473E+02 -0.65458203393E+02  0.20434430257E+03  0.17061675626E+03 0.  0.
         24    2    3    3    0    0 -0.65381268306E+02 -0.29792092035E+02 -0.92581608549E+02  0.15858767615E+03  0.10684763822E+03 0.  0.
         -6    2    1    2    0  502  0.63013140439E+02  0.66265256473E+02  0.61322682131E+03  0.64344389467E+03  0.17207896772E+03 0.  0.
        -24    2    5    5    0    0 -0.15116196453E+02  0.39196959938E+02  0.46551269796E+03  0.47409680082E+03  0.79377600848E+02 0.  0.
          5    1    3    3  501    0  0.23681278673E+01 -0.36473164438E+02  0.27123405156E+02  0.45756626416E+02  0.47000000000E+01 0. -1.
        -11    1    4    4    0    0 -0.66348001872E+02 -0.65385247991E+02 -0.67038237439E+02  0.11476677780E+03  0.00000000000E+00 0.  1.
         12    1    4    4    0    0  0.96673356608E+00  0.35593155957E+02 -0.25543371111E+02  0.43820898353E+02  0.00000000000E+00 0. -1.
         -5    1    5    5    0  502  0.78129336891E+02  0.27068296535E+02  0.14771412335E+03  0.16934709385E+03  0.47000000000E+01 0.  1.
         11    1    6    6    0    0  0.22435796328E+02  0.34441141400E+02  0.12727814514E+03  0.13375082582E+03  0.00000000000E+00 0. -1.
        -12    1    6    6    0    0 -0.37551992780E+02  0.47558185374E+01  0.33823455282E+03  0.34034597499E+03  0.00000000000E+00 0.  1.
</event>
<event>
12    1  0.8297444E-002  0.1868061E+03  0.7818608E-02  0.1163086E+00
         21   -1    0    0  503  502  0.00000000000E+00  0.00000000000E+00  0.28622760075E+03  0.28622760075E+03  0.00000000000E+00 0.  1.
         21   -1    0    0  501  503 -0.00000000000E+00 -0.00000000000E+00 -0.24194671237E+03  0.24194671237E+03  0.00000000000E+00 0.  1.
          6    2    1    2  501    0 -0.42507652055E+02  0.33192695445E+02 -0.16766690202E+03  0.24565284643E+03  0.17124390620E+03 0.  0.
         24    2    3    3    0    0  0.89674061237E+00  0.54032069259E+02 -0.31826279699E+02  0.10145511594E+03  0.79749356231E+02 0.  0.
         -6    2    1    2    0  502  0.42507652055E+02 -0.33192695445E+02  0.21194779040E+03  0.28252146669E+03  0.17885149642E+03 0.  0.
        -24    2    5    5    0    0  0.43250102871E+02  0.49045730888E+02  0.13553471214E+03  0.17016151596E+03  0.79430650267E+02 0.  0.
          5    1    3    3  501    0 -0.43404392667E+02 -0.20839373813E+02 -0.13584062232E+03  0.14419773049E+03  0.47000000000E+01 0. -1.
        -13    1    4    4    0    0 -0.13457249126E+02  0.28045228011E+02 -0.55407102754E+02  0.63541949953E+02  0.00000000000E+00 0.  1.
         14    1    4    4    0    0  0.14353989738E+02  0.25986841247E+02  0.23580823054E+02  0.37913165989E+02  0.00000000000E+00 0. -1.
         -5    1    5    5    0  502 -0.74245081636E+00 -0.82238426333E+02  0.76413078259E+02  0.11235995073E+03  0.47000000000E+01 0.  1.
         13    1    6    6    0    0  0.52999570423E+02  0.13705554875E+02  0.39899450950E+02  0.67740408070E+02  0.00000000000E+00 0. -1.
        -14    1    6    6    0    0 -0.97494675511E+01  0.35340176013E+02  0.95635261194E+02  0.10242110789E+03  0.00000000000E+00 0.  1.
</event>
<event>
12    1  0.8297444E-002  0.3165775E+03  0.7818608E-02  0.1077431E+00
         21   -1    0    0  501  502  0.00000000000E+00  0.00000000000E+00  0.39097095656E+03  0.39097095656E+03  0.00000000000E+00 0. -1.
         21   -1    0    0  502  503 -0.00000000000E+00 -0.00000000000E+00 -0.32191628372E+03  0.32191628372E+03  0.00000000000E+00 0.  1.
         -6    2    1    2    0  503  0.96871619705E+02  0.24503158362E+03 -0.12806840574E+03  0.33995448984E+03  0.17246144769E+03 0.  0.
        -24    2    3    3    0    0  0.10223158425E+03  0.14899538559E+03 -0.28685980354E+02  0.20156866316E+03  0.84593845829E+02 0.  0.
          6    2    1    2  501    0 -0.96871619705E+02 -0.24503158362E+03  0.19712307858E+03  0.37293275044E+03  0.17549000133E+03 0.  0.
         24    2    5    5    0    0 -0.14108639863E+02 -0.18329289603E+03  0.77442389573E+02  0.21479694267E+03  0.79655906393E+02 0.  0.
          5    1    5    5  501    0 -0.82762979842E+02 -0.61738687588E+02  0.11968068900E+03  0.15813580777E+03  0.47000000000E+01 0. -1.
        -11    1    6    6    0    0 -0.27945442635E+02 -0.14949362767E+03  0.89343790965E+02  0.17638482208E+03  0.00000000000E+00 0.  1.
         12    1    6    6    0    0  0.13836802772E+02 -0.33799268369E+02 -0.11901401392E+02  0.38412120591E+02  0.00000000000E+00 0. -1.
         -5    1    3    3    0  503 -0.53599645489E+01  0.96036198033E+02 -0.99382425382E+02  0.13838582669E+03  0.47000000000E+01 0.  1.
         13    1    4    4    0    0  0.56507413303E+02  0.69266383183E+02 -0.56246849361E+02  0.10561547074E+03  0.00000000000E+00 0. -1.
        -14    1    4    4    0    0  0.45724170952E+02  0.79729002406E+02  0.27560869007E+02  0.95953192413E+02  0.00000000000E+00 0.  1.
</event>
<event>
12    1  0.8297444E-002  0.1769057E+03  0.7818608E-02  0.1171475E+00
         21   -1    0    0  503  502  0.00000000000E+00  0.00000000000E+00  0.34535041371E+02  0.34535041371E+02  0.00000000000E+00 0. -1.
         21   -1    0    0  501  503 -0.00000000000E+00 -0.00000000000E+00 -0.10620218986E+04  0.10620218986E+04  0.00000000000E+00 0. -1.
          6    2    1    2  501    0 -0.14009333814E+02 -0.33411189913E+02 -0.72927158576E+03  0.74981786180E+03  0.17052041235E+03 0.  0.
         24    2    3    3    0    0 -0.87836554355E+01  0.31082189930E+02 -0.21296099900E+03  0.22944740169E+03  0.79059900777E+02 0.  0.
         -6    2    1    2    0  502  0.14009333814E+02  0.33411189913E+02 -0.29821527147E+03  0.34673907817E+03  0.17315620448E+03 0.  0.
        -24    2    5    5    0    0 -0.27144307543E+02  0.26171252675E+02 -0.29233161860E+03  0.30428031866E+03  0.75544617237E+02 0.  0.
          5    1    3    3  501    0 -0.52256783789E+01 -0.64493379843E+02 -0.51631058675E+03  0.52037046011E+03  0.47000000000E+01 0. -1.
        -13    1    4    4    0    0 -0.41578071006E+02  0.31943700833E+02 -0.13784809641E+03  0.14748299459E+03  0.00000000000E+00 0.  1.
         14    1    4    4    0    0  0.32794415571E+02 -0.86151090213E+00 -0.75112902599E+02  0.81964407095E+02  0.00000000000E+00 0. -1.
         -5    1    5    5    0  502  0.41153641357E+02  0.72399372380E+01 -0.58836528679E+01  0.42458759511E+02  0.47000000000E+01 0.  1.
         13    1    6    6    0    0  0.94836558373E+01  0.81405099509E+01 -0.40732631694E+01  0.13145307267E+02  0.00000000000E+00 0. -1.
        -14    1    6    6    0    0 -0.36627963380E+02  0.18030742724E+02 -0.28825835543E+03  0.29113501139E+03  0.00000000000E+00 0.  1.
</event>
<event>
12    1  0.8297444E-002  0.1882166E+03  0.7818608E-02  0.1160179E+00
         21   -1    0    0  503  502  0.00000000000E+00  0.00000000000E+00  0.90939615639E+03  0.90939615639E+03  0.00000000000E+00 0. -1.
         21   -1    0    0  501  503 -0.00000000000E+00 -0.00000000000E+00 -0.39002286254E+02  0.39002286254E+02  0.00000000000E+00 0.  1.
          6    2    1    2  501    0  0.30775796306E+02 -0.70716572680E+02  0.46284040312E+03  0.49948273561E+03  0.17121267803E+03 0.  0.
         24    2    3    3    0    0 -0.79337975333E+01 -0.60307947113E+02  0.11568174010E+03  0.14998595528E+03  0.73576682195E+02 0.  0.
         -6    2    1    2    0  502 -0.30775796306E+02  0.70716572680E+02  0.40755346701E+03  0.44891570703E+03  0.17169012860E+03 0.  0.
        -24    2    5    5    0    0  0.22119761577E+02 -0.22536670504E+01  0.28654658509E+03  0.29796090783E+03  0.78596401324E+02 0.  0.
          5    1    3    3  501    0  0.38709593840E+02 -0.10408625567E+02  0.34715866303E+03  0.34949678032E+03  0.47000000000E+01 0. -1.
        -11    1    4    4    0    0  0.16071223951E+02 -0.38155875882E+02  0.14832989737E+02  0.43979230191E+02  0.00000000000E+00 0.  1.
         12    1    4    4    0    0 -0.24005021485E+02 -0.22152071231E+02  0.10084875036E+03  0.10600672509E+03  0.00000000000E+00 0. -1.
         -5    1    5    5    0  502 -0.52895557883E+02  0.72970239731E+02  0.12100688192E+03  0.15095479920E+03  0.47000000000E+01 0.  1.
         11    1    6    6    0    0  0.37422954622E+02  0.23364955485E+02  0.10369176924E+03  0.11268709635E+03  0.00000000000E+00 0. -1.
        -12    1    6    6    0    0 -0.15303193045E+02 -0.25618622536E+02  0.18285481585E+03  0.18527381148E+03  0.00000000000E+00 0.  1.
</event>
<event>
12    1  0.8297444E-002  0.1975120E+03  0.7818608E-02  0.1152175E+00
         21   -1    0    0  501  502  0.00000000000E+00  0.00000000000E+00  0.54821605620E+03  0.54821605620E+03  0.00000000000E+00 0. -1.
         21   -1    0    0  502  503 -0.00000000000E+00 -0.00000000000E+00 -0.11644337768E+03  0.11644337768E+03  0.00000000000E+00 0. -1.
         -6    2    1    2    0  503  0.31818132612E+02 -0.88140173981E+02  0.79193127970E+01  0.19767070084E+03  0.17386749732E+03 0.  0.
        -24    2    3    3    0    0 -0.29478078528E+02 -0.26895973949E+02  0.13400931227E+02  0.11072120010E+03  0.10240726862E+03 0.  0.
          6    2    1    2  501    0 -0.31818132612E+02  0.88140173981E+02  0.42385336572E+03  0.46698873304E+03  0.17217931735E+03 0.  0.
         24    2    5    5    0    0 -0.10932120252E+02  0.35413109546E+01  0.90154164907E+02  0.12206781492E+03  0.81490648861E+02 0.  0.
          5    1    5    5  501    0 -0.20886012360E+02  0.84598863026E+02  0.33369920081E+03  0.34492091812E+03  0.47000000000E+01 0. -1.
        -11    1    6    6    0    0  0.75141732855E+01  0.18723468673E+02 -0.75074077750E+01  0.21526547582E+02  0.00000000000E+00 0.  1.
         12    1    6    6    0    0 -0.18446293537E+02 -0.15182157719E+02  0.97661572682E+02  0.10054126733E+03  0.00000000000E+00 0. -1.
         -5    1    3    3    0  503  0.61296211140E+02 -0.61244200032E+02 -0.54816184303E+01  0.86949500736E+02  0.47000000000E+01 0.  1.
         11    1    4    4    0    0  0.10218425084E+02  0.55627785821E+01 -0.37021101642E+02  0.38806219651E+02  0.00000000000E+00 0. -1.
        -12    1    4    4    0    0 -0.39696503611E+02 -0.32458752531E+02  0.50422032870E+02  0.71914980453E+02  0.00000000000E+00 0.  1.
</event>
<event>
12    1  0.8297444E-002  0.3420461E+03  0.7818608E-02  0.1065943E+00
         21   -1    0    0  503  502  0.00000000000E+00  0.00000000000E+00  0.47780147606E+03  0.47780147606E+03  0.00000000000E+00 0.  1.
         21   -1    0    0  501  503 -0.00000000000E+00 -0.00000000000E+00 -0.31209004305E+03  0.31209004305E+03  0.00000000000E+00 0.  1.
          6    2    1    2  501    0 -0.22874627107E+02  0.29486597517E+03 -0.10059864095E+03  0.35639805589E+03  0.17155260359E+03 0.  0.
         24    2    3    3    0    0 -0.43838978722E+02  0.29318282099E+03 -0.11801958219E+03  0.32868675421E+03  0.78919820294E+02 0.  0.
         -6    2    1    2    0  502  0.22874627107E+02 -0.29486597517E+03  0.26631007395E+03  0.43349346322E+03  0.17183228825E+03 0.  0.
        -24    2    5    5    0    0  0.28562260650E+02 -0.64442082745E+02  0.12193609940E+03  0.16147608527E+03  0.78978028691E+02 0.  0.
          5    1    3    3  501    0  0.20964351614E+02  0.16831541842E+01  0.17420941242E+02  0.27711301672E+02  0.47000000000E+01 0. -1.
        -11    1    4    4    0    0 -0.86409641357E+01  0.17194572065E+03 -0.29922176118E+02  0.17474362288E+03  0.00000000000E+00 0.  1.
         12    1    4    4    0    0 -0.35198014586E+02  0.12123710034E+03 -0.88097406074E+02  0.15394313134E+03  0.00000000000E+00 0. -1.
         -5    1    5    5    0  502 -0.56876335422E+01 -0.23042389243E+03  0.14437397455E+03  0.27201737795E+03  0.47000000000E+01 0.  1.
         11    1    6    6    0    0 -0.23053656775E+02 -0.30904089762E+02  0.74058276220E+02  0.83493485563E+02  0.00000000000E+00 0. -1.
        -12    1    6    6    0    0  0.51615917425E+02 -0.33537992984E+02  0.47877823179E+02  0.77982599709E+02  0.00000000000E+00 0.  1.
</event>
<event>
12    1  0.8297444E-002  0.1780386E+03  0.7818608E-02  0.1171677E+00
         21   -1    0    0  501  502  0.00000000000E+00  0.00000000000E+00  0.34665056666E+03  0.34665056666E+03  0.00000000000E+00 0. -1.
         21   -1    0    0  502  503 -0.00000000000E+00 -0.00000000000E+00 -0.11663264192E+03  0.11663264192E+03  0.00000000000E+00 0. -1.
         -6    2    1    2    0  503  0.14736764136E+02 -0.45522594493E+02  0.23273634254E+03  0.29302550145E+03  0.17148836852E+03 0.  0.
        -24    2    3    3    0    0  0.55196041442E+02 -0.74116485988E+02  0.19173453776E+03  0.22854448296E+03  0.83250172592E+02 0.  0.
          6    2    1    2  501    0 -0.14736764136E+02  0.45522594493E+02 -0.27184177940E+01  0.17025770712E+03  0.16337324815E+03 0.  0.
         24    2    5    5    0    0  0.19071189107E+02  0.59725795385E+02 -0.47835486551E+02  0.11192805333E+03  0.79427794005E+02 0.  0.
          5    1    5    5  501    0 -0.33807953244E+02 -0.14203200892E+02  0.45117068757E+02  0.58329653790E+02  0.47000000000E+01 0. -1.
        -11    1    6    6    0    0 -0.38565994013E+00  0.67767733527E+02 -0.98261595601E+01  0.68477498879E+02  0.00000000000E+00 0.  1.
         12    1    6    6    0    0  0.19456849047E+02 -0.80419381419E+01 -0.38009326991E+02  0.43450554452E+02  0.00000000000E+00 0. -1.
         -5    1    3    3    0  503 -0.40459277306E+02  0.28593891494E+02  0.41001804782E+02  0.64481018496E+02  0.47000000000E+01 0.  1.
         13    1    4    4    0    0 -0.18906485583E+02 -0.36748878491E+02  0.60371700315E+02  0.73161994685E+02  0.00000000000E+00 0. -1.
        -14    1    4    4    0    0  0.74102527026E+02 -0.37367607496E+02  0.13136283744E+03  0.15538248827E+03  0.00000000000E+00 0.  1.
</event>
<event>
12    1  0.8297444E-002  0.1808580E+03  0.7818608E-02  0.1169128E+00
         21   -1    0    0  503  502  0.00000000000E+00  0.00000000000E+00  0.32965404767E+03  0.32965404767E+03  0.00000000000E+00 0. -1.
         21   -1    0    0  501  503 -0.00000000000E+00 -0.00000000000E+00 -0.96685006202E+02  0.96685006202E+02  0.00000000000E+00 0. -1.
          6    2    1    2  501    0 -0.40594340668E+02 -0.39905165855E+02  0.87242403137E+02  0.20080057346E+03  0.17166627695E+03 0.  0.
         24    2    3    3    0    0 -0.36828412871E+02  0.31897257301E+02  0.15203383896E+02  0.98911023081E+02  0.84725914496E+02 0.  0.
         -6    2    1    2    0  502  0.40594340668E+02  0.39905165855E+02  0.14572663833E+03  0.22553848041E+03  0.16245316332E+03 0.  0.
        -24    2    5    5    0    0  0.17356040937E+02  0.83712402337E+02  0.12394671082E+03  0.17117353045E+03  0.81416165105E+02 0.  0.
          5    1    3    3  501    0 -0.37659277971E+01 -0.71802423156E+02  0.72039019241E+02  0.10188955038E+03  0.47000000000E+01 0. -1.
        -13    1    4    4    0    0 -0.60527754327E+02  0.19932745878E+02  0.27800807675E+02  0.69525594636E+02  0.00000000000E+00 0.  1.
         14    1    4    4    0    0  0.23699341456E+02  0.11964511422E+02 -0.12597423779E+02  0.29385428445E+02  0.00000000000E+00 0. -1.
         -5    1    5    5    0  502  0.23238299731E+02 -0.43807236482E+02  0.21779927516E+02  0.54364949969E+02  0.47000000000E+01 0.  1.
         11    1    6    6    0    0 -0.31774340265E+02  0.27144987669E+02  0.32424660637E+02  0.52894401142E+02  0.00000000000E+00 0. -1.
        -12    1    6    6    0    0  0.49130381202E+02  0.56567414668E+02  0.91522050182E+02  0.11827912930E+03  0.00000000000E+00 0.  1.
</event>
<event>
12    1  0.8297444E-002  0.1929082E+03  0.7818608E-02  0.1158565E+00
         21   -1    0    0  503  502  0.00000000000E+00  0.00000000000E+00  0.67502466055E+02  0.67502466055E+02  0.00000000000E+00 0. -1.
         21   -1    0    0  501  503 -0.00000000000E+00 -0.00000000000E+00 -0.52026664481E+03  0.52026664481E+03  0.00000000000E+00 0. -1.
          6    2    1    2  501    0 -0.56794322957E+02  0.40955560668E+01 -0.23840413508E+03  0.29938778032E+03  0.17191318356E+03 0.  0.
         24    2    3    3    0    0 -0.29716680657E+01 -0.55908048922E+02 -0.15805299594E+03  0.18547682232E+03  0.79286577345E+02 0.  0.
         -6    2    1    2    0  502  0.56794322957E+02 -0.40955560668E+01 -0.21436004368E+03  0.28838133055E+03  0.18431276348E+03 0.  0.
        -24    2    5    5    0    0  0.57302534728E+01  0.61156681317E+02 -0.15959856778E+03  0.18895144109E+03  0.80361488141E+02 0.  0.
          5    1    3    3  501    0 -0.53822654892E+02  0.60003604989E+02 -0.80351139140E+02  0.11391095800E+03  0.47000000000E+01 0. -1.
        -13    1    4    4    0    0 -0.31937939119E+02 -0.35649106052E+02 -0.13510649552E+03  0.14333407079E+03  0.00000000000E+00 0.  1.
         14    1    4    4    0    0  0.28966271053E+02 -0.20258942870E+02 -0.22946500415E+02  0.42142751526E+02  0.00000000000E+00 0. -1.
         -5    1    5    5    0  502  0.51064069485E+02 -0.65252237383E+02 -0.54761475899E+02  0.99429889462E+02  0.47000000000E+01 0.  1.
         13    1    6    6    0    0  0.31182061766E+02  0.71301461592E+01 -0.98285900850E+02  0.10335994517E+03  0.00000000000E+00 0. -1.
        -14    1    6    6    0    0 -0.25451808293E+02  0.54026535158E+02 -0.61312666932E+02  0.85591495914E+02  0.00000000000E+00 0.  1.
</event>
<event>
12    1  0.8297444E-002  0.1769717E+03  0.7818608E-02  0.1171054E+00
         21   -1    0    0  503  502  0.00000000000E+00  0.00000000000E+00  0.37774590100E+03  0.37774590100E+03  0.00000000000E+00 0. -1.
         21   -1    0    0  501  503 -0.00000000000E+00 -0.00000000000E+00 -0.83470227905E+02  0.83470227905E+02  0.00000000000E+00 0. -1.
          6    2    1    2  501    0  0.31316226813E+02 -0.21530302023E+02  0.12112599286E+03  0.21445389981E+03  0.17284301846E+03 0.  0.
         24    2    3    3    0    0 -0.59274004454E+01 -0.71103904350E+02  0.33184985809E+02  0.10674902276E+03  0.72133288350E+02 0.  0.
         -6    2    1    2    0  502 -0.31316226813E+02  0.21530302023E+02  0.17314968024E+03  0.24676222910E+03  0.17165816606E+03 0.  0.
        -24    2    5    5    0    0 -0.40306698187E+02 -0.48809900790E+02  0.12067021722E+03  0.15841769476E+03  0.80794977303E+02 0.  0.
          5    1    3    3  501    0  0.37243627259E+02  0.49573602326E+02  0.87941007049E+02  0.10770487705E+03  0.47000000000E+01 0. -1.
        -13    1    4    4    0    0 -0.16710677884E+02 -0.24630487949E+02 -0.19569868278E+02  0.35621446298E+02  0.00000000000E+00 0.  1.
         14    1    4    4    0    0  0.10783277438E+02 -0.46473416401E+02  0.52754854087E+02  0.71127576467E+02  0.00000000000E+00 0. -1.
         -5    1    5    5    0  502  0.89904713736E+01  0.70340202813E+02  0.52479463025E+02  0.88344534334E+02  0.47000000000E+01 0.  1.
         13    1    6    6    0    0 -0.38630875090E+02  0.98107195318E+00  0.94602485390E+02  0.10219069064E+03  0.00000000000E+00 0. -1.
        -14    1    6    6    0    0 -0.16758230973E+01 -0.49790972743E+02  0.26067731827E+02  0.56227004120E+02  0.00000000000E+00 0.  1.
</event>
<event>
12    1  0.8297444E-002  0.3284750E+03  0.7818608E-02  0.1071837E+00
         21   -1    0    0  501  502  0.00000000000E+00  0.00000000000E+00  0.14556762021E+04  0.14556762021E+04  0.00000000000E+00 0.  1.
         21   -1    0    0  502  503 -0.00000000000E+00 -0.00000000000E+00 -0.10521766144E+03  0.10521766144E+03  0.00000000000E+00 0. -1.
         -6    2    1    2    0  503  0.27533623260E+03 -0.45999358059E+02  0.25047502955E+03  0.41291321024E+03  0.17272404823E+03 0.  0.
        -24    2    3    3    0    0  0.21392389485E+03 -0.77328801064E+02  0.12997118425E+03  0.27400217411E+03  0.80258995867E+02 0.  0.
          6    2    1    2  501    0 -0.27533623260E+03  0.45999358059E+02  0.10999835111E+04  0.11479806533E+04  0.17311809177E+03 0.  0.
         24    2    5    5    0    0 -0.20067009826E+03  0.37603312705E+02  0.54555479597E+03  0.58846406251E+03  0.83530952306E+02 0.  0.
          5    1    5    5  501    0 -0.74666134336E+02  0.83960453544E+01  0.55442871513E+03  0.55951659077E+03  0.47000000000E+01 0. -1.
        -11    1    6    6    0    0 -0.16446802500E+03  0.50163834860E+02  0.50106279286E+03  0.52974528215E+03  0.00000000000E+00 0.  1.
         12    1    6    6    0    0 -0.36202073265E+02 -0.12560522156E+02  0.44492003109E+02  0.58718780353E+02  0.00000000000E+00 0. -1.
         -5    1    3    3    0  503  0.61412337744E+02  0.31329443005E+02  0.12050384530E+03  0.13891103613E+03  0.47000000000E+01 0.  1.
         13    1    4    4    0    0  0.51253074934E+02 -0.54033665061E+02  0.58946079388E+02  0.94979760609E+02  0.00000000000E+00 0. -1.
        -14    1    4    4    0    0  0.16267081992E+03 -0.23295136003E+02  0.71025104861E+02  0.17902241350E+03  0.00000000000E+00 0.  1.
</event>
<event>
12    1  0.8297444E-002  0.1722431E+03  0.7818608E-02  0.1175597E+00
         21   -1    0    0  503  502  0.00000000000E+00  0.00000000000E+00  0.13843305450E+04  0.13843305450E+04  0.00000000000E+00 0.  1.
         21   -1    0    0  501  503 -0.00000000000E+00 -0.00000000000E+00 -0.22873318946E+02  0.22873318946E+02  0.00000000000E+00 0.  1.
          6    2    1    2  501    0  0.79227058235E+01  0.94814087827E+01  0.50252680095E+03  0.53122582212E+03  0.17179936565E+03 0.  0.
         24    2    3    3    0    0  0.56862520672E+02 -0.32338257111E+02  0.37007727774E+03  0.38388622754E+03  0.78309227211E+02 0.  0.
         -6    2    1    2    0  502 -0.79227058235E+01 -0.94814087827E+01  0.85893042509E+03  0.87597804181E+03  0.17153246983E+03 0.  0.
        -24    2    5    5    0    0 -0.54671468143E+02  0.39230150929E+02  0.57889137701E+03  0.58787698093E+03  0.77176059527E+02 0.  0.
          5    1    3    3  501    0 -0.48939814848E+02  0.41819665894E+02  0.13244952321E+03  0.14733959458E+03  0.47000000000E+01 0. -1.
        -11    1    4    4    0    0 -0.19593559462E+02 -0.17718804494E+01  0.68191010002E+02  0.70972254986E+02  0.00000000000E+00 0.  1.
         12    1    4    4    0    0  0.76456080133E+02 -0.30566376662E+02  0.30188626774E+03  0.31291397255E+03  0.00000000000E+00 0. -1.
         -5    1    5    5    0  502  0.46748762320E+02 -0.48711559712E+02  0.28003904808E+03  0.28810106088E+03  0.47000000000E+01 0.  1.
         13    1    6    6    0    0 -0.53400478931E+02  0.26954295975E+02  0.19925707616E+03  0.20804212944E+03  0.00000000000E+00 0. -1.
        -14    1    6    6    0    0 -0.12709892126E+01  0.12275854954E+02  0.37963430084E+03  0.37983485149E+03  0.00000000000E+00 0.  1.
</event>
<event>
12    1  0.8297444E-002  0.1811857E+03  0.7818608E-02  0.1168214E+00
         21   -1    0    0  501  502  0.00000000000E+00  0.00000000000E+00  0.10508041926E+04  0.10508041926E+04  0.00000000000E+00 0. -1.
         21   -1    0    0  502  503 -0.00000000000E+00 -0.00000000000E+00 -0.46784508043E+02  0.46784508043E+02  0.00000000000E+00 0. -1.
         -6    2    1    2    0  503  0.24489084317E+02 -0.17429718993E+02  0.16908247063E+03  0.24321852332E+03  0.17222908540E+03 0.  0.
        -24    2    3    3    0    0  0.72641945413E+02 -0.33664640868E+02  0.74135471633E+02  0.13542569731E+03  0.80211539448E+02 0.  0.
          6    2    1    2  501    0 -0.24489084317E+02  0.17429718993E+02  0.83493721391E+03  0.85437017731E+03  0.17867495164E+03 0.  0.
         24    2    5    5    0    0 -0.46583329477E+02  0.53061343972E+02  0.31159518891E+03  0.32933043262E+03  0.79884036508E+02 0.  0.
          5    1    5    5  501    0  0.22094245160E+02 -0.35631624979E+02  0.52334202500E+03  0.52503974469E+03  0.47000000000E+01 0. -1.
        -11    1    6    6    0    0 -0.56493295075E+01 -0.13846472659E+02  0.10721512070E+02  0.18400830146E+02  0.00000000000E+00 0.  1.
         12    1    6    6    0    0 -0.40933999970E+02  0.66907816631E+02  0.30087367684E+03  0.31092960248E+03  0.00000000000E+00 0. -1.
         -5    1    3    3    0  503 -0.48152861096E+02  0.16234921875E+02  0.94946999000E+02  0.10779282601E+03  0.47000000000E+01 0.  1.
         11    1    4    4    0    0  0.60262136554E+02 -0.43995561328E+01  0.65920132399E+01  0.60781048319E+02  0.00000000000E+00 0. -1.
        -12    1    4    4    0    0  0.12379808860E+02 -0.29265084735E+02  0.67543458393E+02  0.74644648995E+02  0.00000000000E+00 0.  1.
</event>
<event>
12    1  0.8297444E-002  0.2782832E+03  0.7818608E-02  0.1097077E+00
         21   -1    0    0  501  502  0.00000000000E+00  0.00000000000E+00  0.14161848473E+03  0.14161848473E+03  0.00000000000E+00 0.  1.
         21   -1    0    0  502  503 -0.00000000000E+00 -0.00000000000E+00 -0.56683332936E+03  0.56683332936E+03  0.00000000000E+00 0.  1.
         -6    2    1    2    0  503 -0.17643629655E+03  0.12031509928E+03 -0.28774834058E+03  0.39806721520E+03  0.17335775280E+03 0.  0.
        -24    2    3    3    0    0 -0.27348166600E+02  0.66038338370E+02 -0.16615884659E+03  0.19811889109E+03  0.80829130610E+02 0.  0.
          6    2    1    2  501    0  0.17643629655E+03 -0.12031509928E+03 -0.13746650404E+03  0.31038459888E+03  0.17842665058E+03 0.  0.
         24    2    5    5    0    0  0.15855413883E+03 -0.15624253164E+03 -0.12631189331E+03  0.26846721226E+03  0.81048171092E+02 0.  0.
          5    1    5    5  501    0  0.17882157717E+02  0.35927432357E+02 -0.11154610736E+02  0.41917386621E+02  0.47000000000E+01 0. -1.
        -11    1    6    6    0    0  0.12016951846E+03 -0.87284909364E+02 -0.45090357582E+02  0.15521761793E+03  0.00000000000E+00 0.  1.
         12    1    6    6    0    0  0.38384620367E+02 -0.68957622274E+02 -0.81221535725E+02  0.11324959433E+03  0.00000000000E+00 0. -1.
         -5    1    3    3    0  503 -0.14908812995E+03  0.54276760911E+02 -0.12158949399E+03  0.19994832411E+03  0.47000000000E+01 0.  1.
         11    1    4    4    0    0 -0.20552330802E+02 -0.15650126493E+02 -0.36319118302E+02  0.44569082499E+02  0.00000000000E+00 0. -1.
        -12    1    4    4    0    0 -0.67958357984E+01  0.81688464863E+02 -0.12983972829E+03  0.15354980859E+03  0.00000000000E+00 0.  1.
</event>
<event>
12    1  0.8297444E-002  0.1858652E+03  0.7818608E-02  0.1163927E+00
         21   -1    0    0  501  502  0.00000000000E+00  0.00000000000E+00  0.26676590094E+03  0.26676590094E+03  0.00000000000E+00 0. -1.
         21   -1    0    0  502  503 -0.00000000000E+00 -0.00000000000E+00 -0.19806185941E+03  0.19806185941E+03  0.00000000000E+00 0. -1.
         -6    2    1    2    0  503 -0.82841406398E+00  0.72545483953E+02  0.17545969630E+03  0.25048536985E+03  0.16338078825E+03 0.  0.
        -24    2    3    3    0    0  0.18812760779E+02 -0.16732109439E+02  0.10283545792E+03  0.13364088161E+03  0.81552868597E+02 0.  0.
          6    2    1    2  501    0  0.82841406398E+00 -0.72545483953E+02 -0.10675565478E+03  0.21434239050E+03  0.17112088425E+03 0.  0.
         24    2    5    5    0    0  0.41824253335E+02 -0.14988308669E+02 -0.48583788701E+01  0.90251165582E+02  0.78407598355E+02 0.  0.
          5    1    5    5  501    0 -0.40995839271E+02 -0.57557175284E+02 -0.10189727591E+03  0.12409122492E+03  0.47000000000E+01 0. -1.
        -11    1    6    6    0    0  0.49476678253E+02 -0.37741302459E+02 -0.15286992434E+02  0.64078387464E+02  0.00000000000E+00 0.  1.
         12    1    6    6    0    0 -0.76524249189E+01  0.22752993790E+02  0.10428613564E+02  0.26172778118E+02  0.00000000000E+00 0. -1.
         -5    1    3    3    0  503 -0.19641174843E+02  0.89277593392E+02  0.72624238383E+02  0.11684448824E+03  0.47000000000E+01 0.  1.
         11    1    4    4    0    0  0.16227816492E+02 -0.18737047684E+02  0.11674724244E+03  0.11934964433E+03  0.00000000000E+00 0. -1.
        -12    1    4    4    0    0  0.25849442873E+01  0.20049382445E+01 -0.13911784521E+02  0.14291237277E+02  0.00000000000E+00 0.  1.
</event>
<event>
12    1  0.8297444E-002  0.2259130E+03  0.7818608E-02  0.1131368E+00
         21   -1    0    0  503  502  0.00000000000E+00  0.00000000000E+00  0.41583367654E+03  0.41583367654E+03  0.00000000000E+00 0. -1.
         21   -1    0    0  501  503 -0.00000000000E+00 -0.00000000000E+00 -0.44891546212E+03  0.44891546212E+03  0.00000000000E+00 0.  1.
          6    2    1    2  501    0 -0.13056494842E+03  0.11383458466E+02 -0.38815323701E+03  0.44910979700E+03  0.18401055805E+03 0.  0.
         24    2    3    3    0    0 -0.12623208872E+03 -0.25367498718E+02 -0.38239005731E+03  0.41136445599E+03  0.80128081916E+02 0.  0.
         -6    2    1    2    0  502  0.13056494842E+03 -0.11383458466E+02  0.35507145143E+03  0.41563934166E+03  0.17176593909E+03 0.  0.
        -24    2    5    5    0    0  0.18868138221E+02  0.40613989652E+02  0.14647807200E+03  0.17333127337E+03  0.81132003267E+02 0.  0.
          5    1    3    3  501    0 -0.43328597023E+01  0.36750957184E+02 -0.57631796966E+01  0.37745341001E+02  0.47000000000E+01 0. -1.
        -13    1    4    4    0    0 -0.91931474066E+02  0.20454255403E+02 -0.22658378753E+03  0.24537723053E+03  0.00000000000E+00 0.  1.
         14    1    4    4    0    0 -0.34300614651E+02 -0.45821754121E+02 -0.15580626978E+03  0.16598722547E+03  0.00000000000E+00 0. -1.
         -5    1    5    5    0  502  0.11169681020E+03 -0.51997448117E+02  0.20859337943E+03  0.24230806829E+03  0.47000000000E+01 0.  1.
         13    1    6    6    0    0  0.24158534322E+02 -0.13239083616E+02  0.93992534775E+02  0.97946437959E+02  0.00000000000E+00 0. -1.
        -14    1    6    6    0    0 -0.52903961009E+01  0.53853073268E+02  0.52485537226E+02  0.75384835406E+02  0.00000000000E+00 0.  1.
</event>
<event>
12    1  0.8297444E-002  0.2203822E+03  0.7818608E-02  0.1134773E+00
         21   -1    0    0  503  502  0.00000000000E+00  0.00000000000E+00  0.12122549990E+03  0.12122549990E+03  0.00000000000E+00 0. -1.
         21   -1    0    0  501  503 -0.00000000000E+00 -0.00000000000E+00 -0.53094384320E+03  0.53094384320E+03  0.00000000000E+00 0. -1.
          6    2    1    2  501    0 -0.12020022042E+03  0.43663884159E+02 -0.37105222216E+03  0.42842089034E+03  0.17178498172E+03 0.  0.
         24    2    3    3    0    0 -0.22405949616E+02  0.73302561404E+02 -0.20470602709E+03  0.23313823058E+03  0.81077647621E+02 0.  0.
         -6    2    1    2    0  502  0.12020022042E+03 -0.43663884159E+02 -0.38666121141E+02  0.22374845276E+03  0.17948167990E+03 0.  0.
        -24    2    5    5    0    0 -0.13435406912E+01 -0.36300399195E+02 -0.50180476352E+02  0.10134838270E+03  0.80211535237E+02 0.  0.
          5    1    3    3  501    0 -0.97794270806E+02 -0.29638677245E+02 -0.16634619507E+03  0.19528265977E+03  0.47000000000E+01 0. -1.
        -11    1    4    4    0    0  0.11602626268E+02  0.92215751132E+01 -0.12293291463E+03  0.12382309915E+03  0.00000000000E+00 0.  1.
         12    1    4    4    0    0 -0.34008575884E+02  0.64080986291E+02 -0.81773112457E+02  0.10931513143E+03  0.00000000000E+00 0. -1.
         -5    1    5    5    0  502  0.12154376111E+03 -0.73634849637E+01  0.11514355211E+02  0.12240007007E+03  0.47000000000E+01 0.  1.
         13    1    6    6    0    0  0.12682646728E+02 -0.13140956586E+00 -0.60004551328E+02  0.61330359339E+02  0.00000000000E+00 0. -1.
        -14    1    6    6    0    0 -0.14026187420E+02 -0.36168989629E+02  0.98240749766E+01  0.40018023358E+02  0.00000000000E+00 0.  1.
</event>
<event>
12    1  0.8297444E-002  0.1786228E+03  0.7818608E-02  0.1169577E+00
         21   -1    0    0  503  502  0.00000000000E+00  0.00000000000E+00  0.30208795718E+03  0.30208795718E+03  0.00000000000E+00 0. -1.
         21   -1    0    0  501  503 -0.00000000000E+00 -0.00000000000E+00 -0.16349490192E+03  0.16349490192E+03  0.00000000000E+00 0. -1.
          6    2    1    2  501    0  0.59900735337E+01 -0.46617599192E+02 -0.70228801175E+02  0.19193276201E+03  0.17232823066E+03 0.  0.
         24    2    3    3    0    0  0.42497018261E+02 -0.77975165803E+02 -0.19008418877E+02  0.12149362828E+03  0.80704762449E+02 0.  0.
         -6    2    1    2    0  502 -0.59900735337E+01  0.46617599192E+02  0.20882185643E+03  0.27365009710E+03  0.17049553186E+03 0.  0.
        -24    2    5    5    0    0 -0.61925447264E+02  0.22753882437E+02  0.80322619982E+02  0.13140950240E+03  0.80400459300E+02 0.  0.
          5    1    3    3  501    0 -0.36506944727E+02  0.31357566612E+02 -0.51220382298E+02  0.70439133725E+02  0.47000000000E+01 0. -1.
        -11    1    4    4    0    0  0.57169518166E+02 -0.29491062339E+02 -0.27804990679E+02  0.70079912042E+02  0.00000000000E+00 0.  1.
         12    1    4    4    0    0 -0.14672499905E+02 -0.48484103465E+02  0.87965718018E+01  0.51413716241E+02  0.00000000000E+00 0. -1.
         -5    1    5    5    0  502  0.55935373730E+02  0.23863716754E+02  0.12849923645E+03  0.14224059470E+03  0.47000000000E+01 0.  1.
         13    1    6    6    0    0 -0.20050997693E+02 -0.30135457300E+02  0.33249710959E+02  0.49150092309E+02  0.00000000000E+00 0. -1.
        -14    1    6    6    0    0 -0.41874449571E+02  0.52889339737E+02  0.47072909023E+02  0.82259410091E+02  0.00000000000E+00 0.  1.
</event>
<event>
12    1  0.8297444E-002  0.2130995E+03  0.7818608E-02  0.1140957E+00
         21   -1    0    0  501  502  0.00000000000E+00  0.00000000000E+00  0.86876628125E+03  0.86876628125E+03  0.00000000000E+00 0.  1.
         21   -1    0    0  502  503 -0.00000000000E+00 -0.00000000000E+00 -0.20660640005E+03  0.20660640005E+03  0.00000000000E+00 0.  1.
         -6    2    1    2    0  503  0.30917594050E+02  0.10464293377E+03 -0.13518442537E+03  0.25236131660E+03  0.18304470504E+03 0.  0.
        -24    2    3    3    0    0  0.77226701552E+02  0.41205702104E+02 -0.32124164521E+02  0.12269897370E+03  0.79757149417E+02 0.  0.
          6    2    1    2  501    0 -0.30917594050E+02 -0.10464293377E+03  0.79734430657E+03  0.82301136470E+03  0.17228964563E+03 0.  0.
         24    2    5    5    0    0 -0.77474167096E+02 -0.60788020125E+02  0.37834563736E+03  0.39913314782E+03  0.80401607077E+02 0.  0.
          5    1    5    5  501    0  0.46556573046E+02 -0.43854913645E+02  0.41899866921E+03  0.42387821688E+03  0.47000000000E+01 0. -1.
        -11    1    6    6    0    0 -0.35074217688E+02  0.80570518211E+01  0.54229314049E+02  0.65084063585E+02  0.00000000000E+00 0.  1.
         12    1    6    6    0    0 -0.42399949408E+02 -0.68845071946E+02  0.32411632331E+03  0.33404908423E+03  0.00000000000E+00 0. -1.
         -5    1    3    3    0  503 -0.46309107502E+02  0.63437231666E+02 -0.10306026085E+03  0.12966234290E+03  0.47000000000E+01 0.  1.
         13    1    4    4    0    0  0.48443484038E+02  0.20322845966E+02 -0.58349275498E+02  0.78513866069E+02  0.00000000000E+00 0. -1.
        -14    1    4    4    0    0  0.28783217514E+02  0.20882856137E+02  0.26225110977E+02  0.44185107634E+02  0.00000000000E+00 0.  1.
</event>
<event>
12    1  0.8297444E-002  0.1962397E+03  0.7818608E-02  0.1152965E+00
         21   -1    0    0  503  502  0.00000000000E+00  0.00000000000E+00  0.20298894453E+03  0.20298894453E+03  0.00000000000E+00 0. -1.
         21   -1    0    0  501  503 -0.00000000000E+00 -0.00000000000E+00 -0.75287444528E+03  0.75287444528E+03  0.00000000000E+00 0. -1.
          6    2    1    2  501    0  0.93182834846E+02  0.15513026996E+02 -0.68833015710E+03  0.71575722608E+03  0.17200670569E+03 0.  0.
         24    2    3    3    0    0  0.10544578115E+03  0.13774707180E+02 -0.69028497979E+03  0.70236644793E+03  0.74274615723E+02 0.  0.
         -6    2    1    2    0  502 -0.93182834846E+02 -0.15513026996E+02  0.13844465635E+03  0.24010616373E+03  0.17193124286E+03 0.  0.
        -24    2    5    5    0    0 -0.73464432931E+02  0.50160406173E+02  0.12181287692E+03  0.16939179966E+03  0.77085118905E+02 0.  0.
          5    1    3    3  501    0 -0.12262946302E+02  0.17383198159E+01  0.19548226866E+01  0.13390778152E+02  0.47000000000E+01 0. -1.
        -13    1    4    4    0    0  0.71771741919E+02  0.13750527938E+02 -0.24136059902E+03  0.25218088492E+03  0.00000000000E+00 0.  1.
         14    1    4    4    0    0  0.33674039229E+02  0.24179241746E-01 -0.44892438076E+03  0.45018556302E+03  0.00000000000E+00 0. -1.
         -5    1    5    5    0  502 -0.19718401915E+02 -0.65673433169E+02  0.16631779430E+02  0.70714364066E+02  0.47000000000E+01 0.  1.
         13    1    6    6    0    0 -0.23777786512E+02  0.61038158210E+02  0.55758627558E+02  0.86023627197E+02  0.00000000000E+00 0. -1.
        -14    1    6    6    0    0 -0.49686646419E+02 -0.10877752036E+02  0.66054249359E+02  0.83368172465E+02  0.00000000000E+00 0.  1.
</event>
<event>
12    1  0.8297444E-002  0.1862447E+03  0.7818608E-02  0.1162924E+00
         21   -1    0    0  503  502  0.00000000000E+00  0.00000000000E+00  0.17103929563E+03  0.17103929563E+03  0.00000000000E+00 0. -1.
         21   -1    0    0  501  503 -0.00000000000E+00 -0.00000000000E+00 -0.21905376932E+03  0.21905376932E+03  0.00000000000E+00 0. -1.
          6    2    1    2  501    0 -0.65293573567E+02  0.11064041810E+02 -0.84157183403E+02  0.20037379258E+03  0.16935631510E+03 0.  0.
         24    2    3    3    0    0 -0.55724824106E+02  0.38343593837E+02  0.13660543129E+02  0.98265357328E+02  0.69957006813E+02 0.  0.
         -6    2    1    2    0  502  0.65293573567E+02 -0.11064041810E+02  0.36142709715E+02  0.18971927237E+03  0.17407309692E+03 0.  0.
        -24    2    5    5    0    0  0.75204253523E+01 -0.34119598173E+02  0.75792298353E+02  0.11580394775E+03  0.80283111853E+02 0.  0.
          5    1    3    3  501    0 -0.95687494618E+01 -0.27279552027E+02 -0.97817726532E+02  0.10210843525E+03  0.47000000000E+01 0. -1.
        -13    1    4    4    0    0  0.10126502920E+02  0.27103986241E+02  0.12321675726E+02  0.31448303996E+02  0.00000000000E+00 0.  1.
         14    1    4    4    0    0 -0.65851327026E+02  0.11239607596E+02  0.13388674030E+01  0.66817053331E+02  0.00000000000E+00 0. -1.
         -5    1    5    5    0  502  0.57773148215E+02  0.23055556363E+02 -0.39649588637E+02  0.73915324615E+02  0.47000000000E+01 0.  1.
         11    1    6    6    0    0  0.48361333920E+01 -0.74940783740E+01 -0.17017505532E+02  0.19213143714E+02  0.00000000000E+00 0. -1.
        -12    1    6    6    0    0  0.26842919603E+01 -0.26625519799E+02  0.92809803884E+02  0.96590804039E+02  0.00000000000E+00 0.  1.
</event>
<event>
12    1  0.8297444E-002  0.3127102E+03  0.7818608E-02  0.1079058E+00
         21   -1    0    0  501  502  0.00000000000E+00  0.00000000000E+00  0.19527343257E+03  0.19527343257E+03  0.00000000000E+00 0.  1.
         21   -1    0    0  502  503 -0.00000000000E+00 -0.00000000000E+00 -0.51610797203E+03  0.51610797203E+03  0.00000000000E+00 0. -1.
         -6    2    1    2    0  503  0.25715513026E+03  0.46202804562E+02 -0.99002429879E+02  0.32797935628E+03  0.17177169980E+03 0.  0.
        -24    2    3    3    0    0  0.14771382077E+03  0.93911971454E+02 -0.49725176040E+02  0.19873577781E+03  0.79902972545E+02 0.  0.
          6    2    1    2  501    0 -0.25715513026E+03 -0.46202804562E+02 -0.22183210959E+03  0.38340204832E+03  0.17182603308E+03 0.  0.
         24    2    5    5    0    0 -0.23237380004E+03 -0.50951668387E+01 -0.12608803219E+03  0.27619677530E+03  0.79767933115E+02 0.  0.
          5    1    5    5  501    0 -0.24781330219E+02 -0.41107637724E+02 -0.95744077395E+02  0.10720527302E+03  0.47000000000E+01 0. -1.
        -13    1    6    6    0    0 -0.21200318310E+02 -0.25979188020E+02 -0.16897925375E+02  0.37548789442E+02  0.00000000000E+00 0.  1.
         14    1    6    6    0    0 -0.21117348173E+03  0.20884021181E+02 -0.10919010682E+03  0.23864798586E+03  0.00000000000E+00 0. -1.
         -5    1    3    3    0  503  0.10944130949E+03 -0.47709166891E+02 -0.49277253839E+02  0.12924357847E+03  0.47000000000E+01 0.  1.
         11    1    4    4    0    0  0.85487687786E+01 -0.52685543363E+00  0.16014341304E+02  0.18160896225E+02  0.00000000000E+00 0. -1.
        -12    1    4    4    0    0  0.13916505199E+03  0.94438826887E+02 -0.65739517344E+02  0.18057488159E+03  0.00000000000E+00 0.  1.
</event>
<event>
12    1  0.8297444E-002  0.2199246E+03  0.7818608E-02  0.1133950E+00
         21   -1    0    0  503  502  0.00000000000E+00  0.00000000000E+00  0.54273213715E+03  0.54273213715E+03  0.00000000000E+00 0.  1.
         21   -1    0    0  501  503 -0.00000000000E+00 -0.00000000000E+00 -0.90513675251E+02  0.90513675251E+02  0.00000000000E+00 0.  1.
          6    2    1    2  501    0 -0.64073628551E+02  0.12074678597E+03  0.18641243019E+03  0.28825354824E+03  0.17220713617E+03 0.  0.
         24    2    3    3    0    0 -0.34109676502E+02  0.98840453773E+02  0.40135027808E+02  0.13726714402E+03  0.79363360794E+02 0.  0.
         -6    2    1    2    0  502  0.64073628551E+02 -0.12074678597E+03  0.26580603171E+03  0.34499226416E+03  0.17228348626E+03 0.  0.
        -24    2    5    5    0    0  0.60151103555E+02 -0.15561558091E+03  0.22713518070E+03  0.29256380070E+03  0.78541854371E+02 0.  0.
          5    1    3    3  501    0 -0.29963952049E+02  0.21906332198E+02  0.14627740238E+03  0.15098640423E+03  0.47000000000E+01 0. -1.
        -13    1    4    4    0    0 -0.34198301717E+02  0.11224493938E+03  0.39637750081E+02  0.12385314484E+03  0.00000000000E+00 0.  1.
         14    1    4    4    0    0  0.88625214403E-01 -0.13404485604E+02  0.49727772749E+00  0.13413999175E+02  0.00000000000E+00 0. -1.
         -5    1    5    5    0  502  0.39225249965E+01  0.34868794939E+02  0.38670851013E+02  0.52428463461E+02  0.47000000000E+01 0.  1.
         13    1    6    6    0    0 -0.17475077749E+02 -0.32775978806E+02  0.64811920860E+02  0.74700925125E+02  0.00000000000E+00 0. -1.
        -14    1    6    6    0    0  0.77626181303E+02 -0.12283960210E+03  0.16232325984E+03  0.21786287557E+03  0.00000000000E+00 0.  1.
</event>
<event>
12    1  0.8297444E-002  0.3526593E+03  0.7818608E-02  0.1061657E+00
         21   -1    0    0  501  502  0.00000000000E+00  0.00000000000E+00  0.78648077924E+03  0.78648077924E+03  0.00000000000E+00 0.  1.
         21   -1    0    0  502  503 -0.00000000000E+00 -0.00000000000E+00 -0.62617971003E+03  0.62617971003E+03  0.00000000000E+00 0. -1.
         -6    2    1    2    0  503  0.14493631646E+01 -0.30661741524E+03 -0.53091689521E+03  0.63667668478E+03  0.17166278380E+03 0.  0.
        -24    2    3    3    0    0  0.50332847093E+02 -0.14513663904E+03 -0.34284250850E+03  0.38397191430E+03  0.79343593650E+02 0.  0.
          6    2    1    2  501    0 -0.14493631646E+01  0.30661741524E+03  0.69121796442E+03  0.77598380449E+03  0.17421897290E+03 0.  0.
         24    2    5    5    0    0 -0.41456828996E+02  0.26855094343E+03  0.64296717074E+03  0.70249991041E+03  0.79126882886E+02 0.  0.
          5    1    5    5  501    0  0.40007465831E+02  0.38066471813E+02  0.48250793678E+02  0.73483894079E+02  0.47000000000E+01 0. -1.
        -11    1    6    6    0    0 -0.56956667444E+02  0.16052932984E+03  0.44432784937E+03  0.47585813582E+03  0.00000000000E+00 0.  1.
         12    1    6    6    0    0  0.15499838448E+02  0.10802161359E+03  0.19863932137E+03  0.22664177459E+03  0.00000000000E+00 0. -1.
         -5    1    3    3    0  503 -0.48883483929E+02 -0.16148077621E+03 -0.18807438671E+03  0.25270477047E+03  0.47000000000E+01 0.  1.
         13    1    4    4    0    0 -0.52395159112E+00 -0.10471549851E+03 -0.17422834810E+03  0.20327598834E+03  0.00000000000E+00 0. -1.
        -14    1    4    4    0    0  0.50856798685E+02 -0.40421140529E+02 -0.16861416039E+03  0.18069592596E+03  0.00000000000E+00 0.  1.
</event>
<event>
12    1  0.8297444E-002  0.2768250E+03  0.7818608E-02  0.1097478E+00
         21   -1    0    0  501  502  0.00000000000E+00  0.00000000000E+00  0.53050688718E+03  0.53050688718E+03  0.00000000000E+00 0.  1.
         21   -1    0    0  502  503 -0.00000000000E+00 -0.00000000000E+00 -0.18129175086E+03  0.18129175086E+03  0.00000000000E+00 0.  1.
         -6    2    1    2    0  503  0.15185657384E+03  0.15504578239E+03  0.13902162985E+02  0.27717385667E+03  0.17185011793E+03 0.  0.
        -24    2    3    3    0    0  0.55227090565E+02  0.97833587810E+02  0.65953573264E+02  0.15331130560E+03  0.80827224140E+02 0.  0.
          6    2    1    2  501    0 -0.15185657384E+03 -0.15504578239E+03  0.33531297334E+03  0.43462478136E+03  0.17136013781E+03 0.  0.
         24    2    5    5    0    0 -0.12975728588E+03 -0.16056661342E+03  0.20583444153E+03  0.30307388511E+03  0.82869608037E+02 0.  0.
          5    1    5    5  501    0 -0.22099287962E+02  0.55208310313E+01  0.12947853181E+03  0.13155089625E+03  0.47000000000E+01 0. -1.
        -13    1    6    6    0    0 -0.41747396617E+02 -0.69389440582E+02  0.13625918537E+03  0.15850648311E+03  0.00000000000E+00 0.  1.
         14    1    6    6    0    0 -0.88009889258E+02 -0.91177172839E+02  0.69575256155E+02  0.14456740201E+03  0.00000000000E+00 0. -1.
         -5    1    3    3    0  503  0.96629483272E+02  0.57212194580E+02 -0.52051410279E+02  0.12386255107E+03  0.47000000000E+01 0.  1.
         13    1    4    4    0    0  0.58547170566E+02  0.22695264394E+02  0.35797268607E+02  0.72279254610E+02  0.00000000000E+00 0. -1.
        -14    1    4    4    0    0 -0.33200800011E+01  0.75138323416E+02  0.30156304656E+02  0.81032050989E+02  0.00000000000E+00 0.  1.
</event>
<event>
12    1  0.8297444E-002  0.1827087E+03  0.7818608E-02  0.1165257E+00
         21   -1    0    0  503  502  0.00000000000E+00  0.00000000000E+00  0.22585688079E+03  0.22585688079E+03  0.00000000000E+00 0.  1.
         21   -1    0    0  501  503 -0.00000000000E+00 -0.00000000000E+00 -0.22554808552E+03  0.22554808552E+03  0.00000000000E+00 0.  1.
          6    2    1    2  501    0  0.46460545843E+02 -0.37279946161E+02 -0.13250186531E+03  0.22569714656E+03  0.17272544962E+03 0.  0.
         24    2    3    3    0    0 -0.13369737368E+02 -0.46436649839E+02 -0.13491038656E+03  0.16494026229E+03  0.81666182696E+02 0.  0.
         -6    2    1    2    0  502 -0.46460545843E+02  0.37279946161E+02  0.13281066059E+03  0.22570781975E+03  0.17250209166E+03 0.  0.
        -24    2    5    5    0    0 -0.21888556953E+02  0.84415046600E+02  0.48624311996E+02  0.12603369262E+03  0.76910070471E+02 0.  0.
          5    1    3    3  501    0  0.59830283211E+02  0.91567036774E+01  0.24085212519E+01  0.60756884268E+02  0.47000000000E+01 0. -1.
        -13    1    4    4    0    0  0.23444520075E+02  0.91824684380E+01 -0.57419263236E+02  0.62697169304E+02  0.00000000000E+00 0.  1.
         14    1    4    4    0    0 -0.36814257442E+02 -0.55619118276E+02 -0.77491123327E+02  0.10224309299E+03  0.00000000000E+00 0. -1.
         -5    1    5    5    0  502 -0.24571988890E+02 -0.47135100439E+02  0.84186348590E+02  0.99674127136E+02  0.47000000000E+01 0.  1.
         11    1    6    6    0    0 -0.39947549239E+02  0.12477916199E+02  0.13554820673E+02  0.43991342857E+02  0.00000000000E+00 0. -1.
        -12    1    6    6    0    0  0.18058992286E+02  0.71937130401E+02  0.35069491323E+02  0.82042349761E+02  0.00000000000E+00 0.  1.
</event>
<event>
12    1  0.8297444E-002  0.2411085E+03  0.7818608E-02  0.1119310E+00
         21   -1    0    0  501  502  0.00000000000E+00  0.00000000000E+00  0.10906911904E+03  0.10906911904E+03  0.00000000000E+00 0.  1.
         21   -1    0    0  502  503 -0.00000000000E+00 -0.00000000000E+00 -0.21339991317E+04  0.21339991317E+04  0.00000000000E+00 0.  1.
         -6    2    1    2    0  503 -0.15310706713E+03  0.66656028024E+02 -0.19841174585E+04  0.19985299337E+04  0.17179932190E+03 0.  0.
        -24    2    3    3    0    0 -0.12403289572E+03  0.48479783781E+01 -0.16961838554E+04  0.17025681250E+04  0.79315111585E+02 0.  0.
          6    2    1    2  501    0  0.15310706713E+03 -0.66656028024E+02 -0.40812554208E+02  0.24453831701E+03  0.17392102756E+03 0.  0.
         24    2    5    5    0    0  0.25623420358E+01 -0.23970742509E+02  0.84901948384E+01  0.80408493651E+02  0.76238312873E+02 0.  0.
          5    1    5    5  501    0  0.15054472509E+03 -0.42685285514E+02 -0.49302749046E+02  0.16412982336E+03  0.47000000000E+01 0. -1.
        -11    1    6    6    0    0  0.26675437522E+02  0.95178419527E-01  0.29979650846E+02  0.40129384381E+02  0.00000000000E+00 0.  1.
         12    1    6    6    0    0 -0.24113095486E+02 -0.24065920929E+02 -0.21489456008E+02  0.40279109270E+02  0.00000000000E+00 0. -1.
         -5    1    3    3    0  503 -0.29074171406E+02  0.61808049646E+02 -0.28793360305E+03  0.29596180870E+03  0.47000000000E+01 0.  1.
         13    1    4    4    0    0  0.66222089467E+01 -0.13205782709E+02 -0.22453874694E+03  0.22502421031E+03  0.00000000000E+00 0. -1.
        -14    1    4    4    0    0 -0.13065510467E+03  0.18053761087E+02 -0.14716451085E+04  0.14775439147E+04  0.00000000000E+00 0.  1.
</event>
<event>
12    1  0.8297444E-002  0.1866603E+03  0.7818608E-02  0.1162083E+00
         21   -1    0    0  501  502  0.00000000000E+00  0.00000000000E+00  0.40045104967E+03  0.40045104967E+03  0.00000000000E+00 0.  1.
         21   -1    0    0  502  503 -0.00000000000E+00 -0.00000000000E+00 -0.12416830781E+03  0.12416830781E+03  0.00000000000E+00 0.  1.
         -6    2    1    2    0  503 -0.79875874558E+01  0.68346823126E+02 -0.69208167727E+01  0.18678852161E+03  0.17351358539E+03 0.  0.
        -24    2    3    3    0    0  0.51080701586E+02  0.44033833739E+01  0.13988530060E+02  0.97138552049E+02  0.81311693263E+02 0.  0.
          6    2    1    2  501    0  0.79875874558E+01 -0.68346823126E+02  0.28320355864E+03  0.33783083587E+03  0.17085177276E+03 0.  0.
         24    2    5    5    0    0  0.55813941319E+00 -0.86681572056E+02  0.99954120816E+02  0.15345674285E+03  0.77744062175E+02 0.  0.
          5    1    5    5  501    0  0.74294480426E+01  0.18334748930E+02  0.18324943782E+03  0.18437409302E+03  0.47000000000E+01 0. -1.
        -11    1    6    6    0    0  0.56138961594E+01  0.14185893969E+02  0.10280149750E+02  0.18396654497E+02  0.00000000000E+00 0.  1.
         12    1    6    6    0    0 -0.50557567462E+01 -0.10086746603E+03  0.89673971065E+02  0.13506008835E+03  0.00000000000E+00 0. -1.
         -5    1    3    3    0  503 -0.59068289042E+02  0.63943439752E+02 -0.20909346833E+02  0.89649969563E+02  0.47000000000E+01 0.  1.
         11    1    4    4    0    0  0.12674024614E+02  0.19915527694E+02  0.41267154106E+02  0.47541951487E+02  0.00000000000E+00 0. -1.
        -12    1    4    4    0    0  0.38406676972E+02 -0.15512144320E+02 -0.27278624045E+02  0.49596600562E+02  0.00000000000E+00 0.  1.
</event>
<event>
12    1  0.8297444E-002  0.2013829E+03  0.7818608E-02  0.1148738E+00
         21   -1    0    0  501  502  0.00000000000E+00  0.00000000000E+00  0.45210855306E+03  0.45210855306E+03  0.00000000000E+00 0. -1.
         21   -1    0    0  502  503 -0.00000000000E+00 -0.00000000000E+00 -0.10520871626E+03  0.10520871626E+03  0.00000000000E+00 0. -1.
         -6    2    1    2    0  503  0.88649361120E+02 -0.55067410940E+02  0.65581445708E+02  0.21179238620E+03  0.17223228459E+03 0.  0.
        -24    2    3    3    0    0  0.24645785739E+02 -0.67969421811E+02 -0.25943420516E+02  0.99267674766E+02  0.62878876655E+02 0.  0.
          6    2    1    2  501    0 -0.88649361120E+02  0.55067410940E+02  0.28131839109E+03  0.34552488312E+03  0.17133674071E+03 0.  0.
         24    2    5    5    0    0 -0.54596536826E+01  0.30556883960E+02  0.23048654841E+03  0.24489059678E+03  0.76706091165E+02 0.  0.
          5    1    5    5  501    0 -0.83189707438E+02  0.24510526980E+02  0.50831842684E+02  0.10063428634E+03  0.47000000000E+01 0. -1.
        -11    1    6    6    0    0  0.15858840845E+02 -0.60614249626E+01  0.86701251885E+01  0.19063440831E+02  0.00000000000E+00 0.  1.
         12    1    6    6    0    0 -0.21318494528E+02  0.36618308922E+02  0.22181642322E+03  0.22582715595E+03  0.00000000000E+00 0. -1.
         -5    1    3    3    0  503  0.64003575382E+02  0.12902010871E+02  0.91524866224E+02  0.11252471143E+03  0.47000000000E+01 0.  1.
         13    1    4    4    0    0  0.19824732005E+02 -0.45379272556E+02  0.15441950047E+02  0.51872460883E+02  0.00000000000E+00 0. -1.
        -14    1    4    4    0    0  0.48210537339E+01 -0.22590149255E+02 -0.41385370563E+02  0.47395213883E+02  0.00000000000E+00 0.  1.
</event>
<event>
12    1  0.8297444E-002  0.1720273E+03  0.7818608E-02  0.1176006E+00
         21   -1    0    0  503  502  0.00000000000E+00  0.00000000000E+00  0.51451516084E+03  0.51451516084E+03  0.00000000000E+00 0. -1.
         21   -1    0    0  501  503 -0.00000000000E+00 -0.00000000000E+00 -0.16737619081E+03  0.16737619081E+03  0.00000000000E+00 0. -1.
          6    2    1    2  501    0  0.29129526959E+01  0.18132448331E+01 -0.10289615625E+03  0.20045202194E+03  0.17199308410E+03 0.  0.
         24    2    3    3    0    0 -0.61517912279E+02 -0.11931032255E+02 -0.37357219880E+02  0.10740534712E+03  0.78826034097E+02 0.  0.
         -6    2    1    2    0  502 -0.29129526959E+01 -0.18132448331E+01  0.45003512628E+03  0.48143932971E+03  0.17099836301E+03 0.  0.
        -24    2    5    5    0    0  0.15773999928E+02  0.55582470279E+02  0.35847038471E+03  0.37166837631E+03  0.79360791043E+02 0.  0.
          5    1    3    3  501    0  0.64430864975E+02  0.13744277088E+02 -0.65538936373E+02  0.93046674820E+02  0.47000000000E+01 0. -1.
        -13    1    4    4    0    0 -0.58758046553E+02 -0.40771708442E+02 -0.29686490037E+02  0.77434668817E+02  0.00000000000E+00 0.  1.
         14    1    4    4    0    0 -0.27598657262E+01  0.28840676187E+02 -0.76707298426E+01  0.29970678305E+02  0.00000000000E+00 0. -1.
         -5    1    5    5    0  502 -0.18686952624E+02 -0.57395715112E+02  0.91564741569E+02  0.10977095340E+03  0.47000000000E+01 0.  1.
         11    1    6    6    0    0 -0.32352870690E+02  0.21230666777E+02  0.12696357752E+03  0.13272979873E+03  0.00000000000E+00 0. -1.
        -12    1    6    6    0    0  0.48126870618E+02  0.34351803502E+02  0.23150680719E+03  0.23893857758E+03  0.00000000000E+00 0.  1.
</event>
<event>
12    1  0.8297444E-002  0.1988850E+03  0.7818608E-02  0.1150809E+00
         21   -1    0    0  501  502  0.00000000000E+00  0.00000000000E+00  0.68711197861E+03  0.68711197861E+03  0.00000000000E+00 0.  1.
         21   -1    0    0  502  503 -0.00000000000E+00 -0.00000000000E+00 -0.60530280554E+02  0.60530280554E+02  0.00000000000E+00 0.  1.
         -6    2    1    2    0  503 -0.91413896174E+02 -0.38432478998E+02  0.22867305848E+03  0.30306204838E+03  0.17239977273E+03 0.  0.
        -24    2    3    3    0    0 -0.12066613079E+03 -0.59945268770E+02  0.20787907695E+03  0.26095536220E+03  0.82038040299E+02 0.  0.
          6    2    1    2  501    0  0.91413896174E+02  0.38432478998E+02  0.39790863958E+03  0.44458021078E+03  0.17171698377E+03 0.  0.
         24    2    5    5    0    0  0.57477569618E+02  0.91995643536E+02  0.31910271180E+03  0.34332236611E+03  0.65397530191E+02 0.  0.
          5    1    5    5  501    0  0.33936326557E+02 -0.53563164537E+02  0.78805927778E+02  0.10125784468E+03  0.47000000000E+01 0. -1.
        -13    1    6    6    0    0  0.57954103035E+02  0.44463078301E+02  0.24162491013E+03  0.25242472261E+03  0.00000000000E+00 0.  1.
         14    1    6    6    0    0 -0.47653341753E+00  0.47532565235E+02  0.77477801667E+02  0.90897643496E+02  0.00000000000E+00 0. -1.
         -5    1    3    3    0  503  0.29252234613E+02  0.21512789771E+02  0.20793981522E+02  0.42106686181E+02  0.47000000000E+01 0.  1.
         11    1    4    4    0    0  0.10695555982E+02 -0.36800035294E+01  0.34312323602E+02  0.36128560651E+02  0.00000000000E+00 0. -1.
        -12    1    4    4    0    0 -0.13136168677E+03 -0.56265265240E+02  0.17356675335E+03  0.22482680154E+03  0.00000000000E+00 0.  1.
</event>
<event>
12    1  0.8297444E-002  0.1848692E+03  0.7818608E-02  0.1166150E+00
         21   -1    0    0  501  502  0.00000000000E+00  0.00000000000E+00  0.24389488851E+03  0.24389488851E+03  0.00000000000E+00 0.  1.
         21   -1    0    0  502  503 -0.00000000000E+00 -0.00000000000E+00 -0.16681739874E+03  0.16681739874E+03  0.00000000000E+00 0.  1.
         -6    2    1    2    0  503 -0.12509976340E+02 -0.60308189455E+01 -0.57649349105E+02  0.18195925616E+03  0.17202573402E+03 0.  0.
        -24    2    3    3    0    0 -0.30246883011E+02 -0.74682103905E+01  0.31415347998E+02  0.91012710200E+02  0.79534528538E+02 0.  0.
          6    2    1    2  501    0  0.12509976340E+02  0.60308189455E+01  0.13472683887E+03  0.22875303108E+03  0.18434684112E+03 0.  0.
         24    2    5    5    0    0  0.27466216543E+02 -0.47175054694E+02  0.14278877304E+03  0.17270270643E+03  0.80359892154E+02 0.  0.
          5    1    5    5  501    0 -0.14956240203E+02  0.53205873640E+02 -0.80619341631E+01  0.56050324649E+02  0.47000000000E+01 0. -1.
        -11    1    6    6    0    0  0.35692830234E+02 -0.26122450509E+02  0.21232822937E+02  0.49063156447E+02  0.00000000000E+00 0.  1.
         12    1    6    6    0    0 -0.82266136906E+01 -0.21052604186E+02  0.12155595010E+03  0.12363954998E+03  0.00000000000E+00 0. -1.
         -5    1    3    3    0  503  0.17736906672E+02  0.14373914450E+01 -0.89064697103E+02  0.90946545962E+02  0.47000000000E+01 0.  1.
         11    1    4    4    0    0  0.60553424564E+01  0.30059456003E+02  0.11986706655E+01  0.30686721539E+02  0.00000000000E+00 0. -1.
        -12    1    4    4    0    0 -0.36302225468E+02 -0.37527666394E+02  0.30216677332E+02  0.60325988661E+02  0.00000000000E+00 0.  1.
</event>
<event>
12    1  0.8297444E-002  0.1818785E+03  0.7818608E-02  0.1166078E+00
         21   -1    0    0  503  502  0.00000000000E+00  0.00000000000E+00  0.67240202944E+03  0.67240202944E+03  0.00000000000E+00 0. -1.
         21   -1    0    0  501  503 -0.00000000000E+00 -0.00000000000E+00 -0.73101082021E+02  0.73101082021E+02  0.00000000000E+00 0. -1.
          6    2    1    2  501    0  0.60781161203E+02 -0.16235755602E+02  0.86273893071E+02  0.20130319744E+03  0.17065123309E+03 0.  0.
         24    2    3    3    0    0  0.59862238203E+02  0.21425112343E+02 -0.54133439547E+01  0.10206699020E+03  0.79660800862E+02 0.  0.
         -6    2    1    2    0  502 -0.60781161203E+02  0.16235755602E+02  0.51302705434E+03  0.54419991402E+03  0.17029045367E+03 0.  0.
        -24    2    5    5    0    0 -0.34713012510E+02 -0.53814357142E+02  0.24390826832E+03  0.26485500595E+03  0.80968836914E+02 0.  0.
          5    1    3    3  501    0  0.91892300070E+00 -0.37660867945E+02  0.91687237026E+02  0.99236207240E+02  0.47000000000E+01 0. -1.
        -11    1    4    4    0    0  0.45099302952E+02  0.25910501958E+02  0.32364491280E+02  0.61259787253E+02  0.00000000000E+00 0.  1.
         12    1    4    4    0    0  0.14762935251E+02 -0.44853896152E+01 -0.37777835235E+02  0.40807202946E+02  0.00000000000E+00 0. -1.
         -5    1    5    5    0  502 -0.26068148693E+02  0.70050112744E+02  0.26911878603E+03  0.27934490807E+03  0.47000000000E+01 0.  1.
         11    1    6    6    0    0 -0.40987950159E+02  0.59269746051E+01  0.76420034560E+02  0.86920439302E+02  0.00000000000E+00 0. -1.
        -12    1    6    6    0    0  0.62749376485E+01 -0.59741331747E+02  0.16748823376E+03  0.17793456665E+03  0.00000000000E+00 0.  1.
</event>
<event>
12    1  0.8297444E-002  0.1856249E+03  0.7818608E-02  0.1163054E+00
         21   -1    0    0  503  502  0.00000000000E+00  0.00000000000E+00  0.58079020826E+02  0.58079020826E+02  0.00000000000E+00 0.  1.
         21   -1    0    0  501  503 -0.00000000000E+00 -0.00000000000E+00 -0.59151215590E+03  0.59151215590E+03  0.00000000000E+00 0.  1.
          6    2    1    2  501    0  0.43935269113E+02  0.43614062399E+02 -0.23161358051E+03  0.29525848365E+03  0.17233753851E+03 0.  0.
         24    2    3    3    0    0  0.30979941826E+02  0.32685989129E+02 -0.25151432213E+03  0.26869925160E+03  0.83136651916E+02 0.  0.
         -6    2    1    2    0  502 -0.43935269113E+02 -0.43614062399E+02 -0.30181955456E+03  0.35433269307E+03  0.17499748442E+03 0.  0.
        -24    2    5    5    0    0  0.14848301818E+02 -0.87698309848E+02 -0.14713650480E+03  0.18302050737E+03  0.62736667568E+02 0.  0.
          5    1    3    3  501    0  0.12955327287E+02  0.10928073270E+02  0.19900741618E+02  0.26559232056E+02  0.47000000000E+01 0. -1.
        -11    1    4    4    0    0 -0.12185225402E+02 -0.14015605040E+02 -0.15265132277E+02  0.24040406947E+02  0.00000000000E+00 0.  1.
         12    1    4    4    0    0  0.43165167229E+02  0.46701594169E+02 -0.23624918985E+03  0.24465884465E+03  0.00000000000E+00 0. -1.
         -5    1    5    5    0  502 -0.58783570932E+02  0.44084247450E+02 -0.15468304976E+03  0.17131218570E+03  0.47000000000E+01 0.  1.
         13    1    6    6    0    0 -0.11920313359E+02 -0.58357315227E+01 -0.89626683137E+00  0.13302365475E+02  0.00000000000E+00 0. -1.
        -14    1    6    6    0    0  0.26768615178E+02 -0.81862578326E+02 -0.14624023796E+03  0.16971814190E+03  0.00000000000E+00 0.  1.
</event>
<event>
12    1  0.8297444E-002  0.2183318E+03  0.7818608E-02  0.1135268E+00
         21   -1    0    0  503  502  0.00000000000E+00  0.00000000000E+00  0.80892443161E+03  0.80892443161E+03  0.00000000000E+00 0.  1.
         21   -1    0    0  501  503 -0.00000000000E+00 -0.00000000000E+00 -0.58781371602E+02  0.58781371602E+02  0.00000000000E+00 0.  1.
          6    2    1    2  501    0  0.28783173223E+02 -0.12998790243E+03  0.36346378566E+03  0.42399846688E+03  0.17304175967E+03 0.  0.
         24    2    3    3    0    0 -0.40153820118E+02 -0.79534007709E+02  0.28189436591E+03  0.30578863318E+03  0.78129808663E+02 0.  0.
         -6    2    1    2    0  502 -0.28783173223E+02  0.12998790243E+03  0.38667927435E+03  0.44370733633E+03  0.17213370754E+03 0.  0.
        -24    2    5    5    0    0 -0.76091023370E+02  0.47360382252E+02  0.22253564573E+03  0.25389015958E+03  0.83097833106E+02 0.  0.
          5    1    3    3  501    0  0.68936993341E+02 -0.50453894717E+02  0.81569419757E+02  0.11820983370E+03  0.47000000000E+01 0. -1.
        -11    1    4    4    0    0  0.12502970578E+02 -0.60697994980E+02  0.16349299498E+03  0.17484430295E+03  0.00000000000E+00 0.  1.
         12    1    4    4    0    0 -0.52656790696E+02 -0.18836012730E+02  0.11840137093E+03  0.13094433023E+03  0.00000000000E+00 0. -1.
         -5    1    5    5    0  502  0.47307850147E+02  0.82627520174E+02  0.16414362861E+03  0.18981717675E+03  0.47000000000E+01 0.  1.
         11    1    6    6    0    0  0.12835889017E+02  0.15114834179E+02  0.82847618494E+02  0.85187711257E+02  0.00000000000E+00 0. -1.
        -12    1    6    6    0    0 -0.88926912387E+02  0.32245548073E+02  0.13968802724E+03  0.16870244832E+03  0.00000000000E+00 0.  1.
</event>
<event>
12    1  0.8297444E-002  0.1785920E+03  0.7818608E-02  0.1169325E+00
         21   -1    0    0  501  502  0.00000000000E+00  0.00000000000E+00  0.12522643097E+04  0.12522643097E+04  0.00000000000E+00 0.  1.
         21   -1    0    0  502  503 -0.00000000000E+00 -0.00000000000E+00 -0.36105316419E+02  0.36105316419E+02  0.00000000000E+00 0.  1.
         -6    2    1    2    0  503 -0.30283555341E+01 -0.43599997287E+02  0.25625951918E+03  0.31199772039E+03  0.17252102961E+03 0.  0.
        -24    2    3    3    0    0  0.61512022739E+02 -0.28251181104E+02  0.11448436508E+03  0.15539845185E+03  0.80375063399E+02 0.  0.
          6    2    1    2  501    0  0.30283555341E+01  0.43599997287E+02  0.95989947413E+03  0.97637190576E+03  0.17316167940E+03 0.  0.
         24    2    5    5    0    0 -0.27144319217E+02 -0.32837083758E+02  0.63554168601E+03  0.64173317164E+03  0.78058572777E+02 0.  0.
          5    1    5    5  501    0  0.30172674751E+02  0.76437081044E+02  0.32435778812E+03  0.33463873412E+03  0.47000000000E+01 0. -1.
        -13    1    6    6    0    0  0.22130238468E+02 -0.30887486324E+02  0.33850362791E+03  0.34062955006E+03  0.00000000000E+00 0.  1.
         14    1    6    6    0    0 -0.49274557685E+02 -0.19495974334E+01  0.29703805811E+03  0.30110362158E+03  0.00000000000E+00 0. -1.
         -5    1    3    3    0  503 -0.64540378273E+02 -0.15348816183E+02  0.14177515410E+03  0.15659926854E+03  0.47000000000E+01 0.  1.
         13    1    4    4    0    0  0.60446448628E+02 -0.39203347076E+02  0.12227076433E+03  0.14191834054E+03  0.00000000000E+00 0. -1.
        -14    1    4    4    0    0  0.10655741108E+01  0.10952165972E+02 -0.77863992499E+01  0.13480111310E+02  0.00000000000E+00 0.  1.
</event>
<event>
12    1  0.8297444E-002  0.1758421E+03  0.7818608E-02  0.1172721E+00
         21   -1    0    0  503  502  0.00000000000E+00  0.00000000000E+00  0.12454488396E+04  0.12454488396E+04  0.00000000000E+00 0.  1.
         21   -1    0    0  501  503 -0.00000000000E+00 -0.00000000000E+00 -0.19439566060E+03  0.19439566060E+03  0.00000000000E+00 0.  1.
          6    2    1    2  501    0 -0.15901501800E+02 -0.64049655007E+01 -0.14839515083E+03  0.22757525051E+03  0.17168428149E+03 0.  0.
         24    2    3    3    0    0 -0.51465080006E+02  0.18659564708E+01 -0.23991422798E+02  0.97838772243E+02  0.79653629751E+02 0.  0.
         -6    2    1    2    0  502  0.15901501800E+02  0.64049655007E+01  0.11994483299E+04  0.12122692497E+04  0.17500444698E+03 0.  0.
        -24    2    5    5    0    0  0.51990452552E+02 -0.45538651359E+02  0.66553792060E+03  0.67460488711E+03  0.85873476900E+02 0.  0.
          5    1    3    3  501    0  0.35563578206E+02 -0.82709219714E+01 -0.12440372803E+03  0.12973647826E+03  0.47000000000E+01 0. -1.
        -11    1    4    4    0    0  0.76857143471E+01  0.43070309252E+01 -0.36315111101E+02  0.37368543117E+02  0.00000000000E+00 0.  1.
         12    1    4    4    0    0 -0.59150794353E+02 -0.24410744545E+01  0.12323688303E+02  0.60470229126E+02  0.00000000000E+00 0. -1.
         -5    1    5    5    0  502 -0.36088950751E+02  0.51943616860E+02  0.53391040928E+03  0.53766436262E+03  0.47000000000E+01 0.  1.
         13    1    6    6    0    0 -0.15808631841E+02  0.13642001500E+01  0.31921748486E+02  0.35647887864E+02  0.00000000000E+00 0. -1.
        -14    1    6    6    0    0  0.67799084393E+02 -0.46902851509E+02  0.63361617211E+03  0.63895699925E+03  0.00000000000E+00 0.  1.
</event>
<event>
12    1  0.8297444E-002  0.1804632E+03  0.7818608E-02  0.1167404E+00
         21   -1    0    0  501  502  0.00000000000E+00  0.00000000000E+00  0.18521272482E+03  0.18521272482E+03  0.00000000000E+00 0. -1.
         21   -1    0    0  502  503 -0.00000000000E+00 -0.00000000000E+00 -0.23105368440E+03  0.23105368440E+03  0.00000000000E+00 0. -1.
         -6    2    1    2    0  503 -0.43080884309E+02  0.32844842466E+02 -0.12485927684E+03  0.21944662799E+03  0.17214016746E+03 0.  0.
        -24    2    3    3    0    0 -0.73495297357E+02  0.52820850483E+02 -0.13541999801E+03  0.18126683950E+03  0.79545523205E+02 0.  0.
          6    2    1    2  501    0  0.43080884309E+02 -0.32844842466E+02  0.79018317268E+02  0.19681978123E+03  0.17192843148E+03 0.  0.
         24    2    5    5    0    0 -0.34704934583E+02 -0.12679335016E+02  0.75440074817E+02  0.11624574614E+03  0.80353410551E+02 0.  0.
          5    1    5    5  501    0  0.77785818892E+02 -0.20165507450E+02  0.35782424505E+01  0.80574035088E+02  0.47000000000E+01 0. -1.
        -13    1    6    6    0    0 -0.15467316787E+02 -0.23308938076E+02  0.87017907976E+02  0.91403833570E+02  0.00000000000E+00 0.  1.
         14    1    6    6    0    0 -0.19237617796E+02  0.10629603060E+02 -0.11577833158E+02  0.24841912574E+02  0.00000000000E+00 0. -1.
         -5    1    3    3    0  503  0.30414413048E+02 -0.19976008017E+02  0.10560721168E+02  0.38179788488E+02  0.47000000000E+01 0.  1.
         11    1    4    4    0    0 -0.88686570467E+02  0.31103029908E+02 -0.10469993252E+03  0.14069393064E+03  0.00000000000E+00 0. -1.
        -12    1    4    4    0    0  0.15191273110E+02  0.21717820575E+02 -0.30720065490E+02  0.40572908855E+02  0.00000000000E+00 0.  1.
</event>
<event>
12    1  0.8297444E-002  0.2118664E+03  0.7818608E-02  0.1140324E+00
         21   -1    0    0  501  502  0.00000000000E+00  0.00000000000E+00  0.17161589500E+03  0.17161589500E+03  0.00000000000E+00 0. -1.
         21   -1    0    0  502  503 -0.00000000000E+00 -0.00000000000E+00 -0.42194283921E+03  0.42194283921E+03  0.00000000000E+00 0. -1.
         -6    2    1    2    0  503 -0.73931907118E+02 -0.95865949866E+02 -0.30873876105E+03  0.37378772667E+03  0.17245705206E+03 0.  0.
        -24    2    3    3    0    0  0.17110841556E+02 -0.76400956891E+02 -0.21159262138E+03  0.23915069429E+03  0.79320426394E+02 0.  0.
          6    2    1    2  501    0  0.73931907118E+02  0.95865949866E+02  0.58411816837E+02  0.21977100754E+03  0.17387106767E+03 0.  0.
         24    2    5    5    0    0 -0.27899791688E+02  0.52538398388E+02  0.42479239684E+02  0.10786520512E+03  0.79320457581E+02 0.  0.
          5    1    5    5  501    0  0.10183169881E+03  0.43327551478E+02  0.15932577153E+02  0.11190580241E+03  0.47000000000E+01 0. -1.
        -13    1    6    6    0    0 -0.15239079048E+02  0.65283673698E+02  0.54375578911E+02  0.86318544726E+02  0.00000000000E+00 0.  1.
         14    1    6    6    0    0 -0.12660712640E+02 -0.12745275310E+02 -0.11896339227E+02  0.21546660398E+02  0.00000000000E+00 0. -1.
         -5    1    3    3    0  503 -0.91042748674E+02 -0.19464992974E+02 -0.97146139666E+02  0.13463703239E+03  0.47000000000E+01 0.  1.
         13    1    4    4    0    0 -0.14648170974E+02 -0.64775520025E+02 -0.18362294396E+03  0.19526346934E+03  0.00000000000E+00 0. -1.
        -14    1    4    4    0    0  0.31759012530E+02 -0.11625436866E+02 -0.27969677418E+02  0.43887224953E+02  0.00000000000E+00 0.  1.
</event>
<event>
12    1  0.8297444E-002  0.5673637E+03  0.7818608E-02  0.9975665E-01
         21   -1    0    0  501  502  0.00000000000E+00  0.00000000000E+00  0.24412975344E+04  0.24412975344E+04  0.00000000000E+00 0.  1.
         21   -1    0    0  502  503 -0.00000000000E+00 -0.00000000000E+00 -0.27807317169E+03  0.27807317169E+03  0.00000000000E+00 0. -1.
         -6    2    1    2    0  503 -0.43741076210E+03 -0.31764226772E+03  0.95356339620E+02  0.57508066666E+03  0.17146473869E+03 0.  0.
        -24    2    3    3    0    0 -0.38800144861E+03 -0.30561309673E+03  0.12488395986E+03  0.51608955232E+03  0.82510202773E+02 0.  0.
          6    2    1    2  501    0  0.43741076210E+03  0.31764226772E+03  0.20678680231E+04  0.21442900394E+04  0.17226963538E+03 0.  0.
         24    2    5    5    0    0  0.37559218913E+03  0.27311871173E+03  0.19303338876E+04  0.19869953751E+04  0.79362332731E+02 0.  0.
          5    1    5    5  501    0  0.61818572969E+02  0.44523555990E+02  0.13753413551E+03  0.15729466435E+03  0.47000000000E+01 0. -1.
        -11    1    6    6    0    0  0.28997952515E+03  0.18206750922E+03  0.15180197326E+04  0.15561557157E+04  0.00000000000E+00 0.  1.
         12    1    6    6    0    0  0.85612663979E+02  0.91051202512E+02  0.41231415496E+03  0.43083965938E+03  0.00000000000E+00 0. -1.
         -5    1    3    3    0  503 -0.49409313485E+02 -0.12029170988E+02 -0.29527620242E+02  0.58991114338E+02  0.47000000000E+01 0.  1.
         13    1    4    4    0    0 -0.20669677262E+03 -0.13695719919E+03  0.25471774252E+02  0.24925818242E+03  0.00000000000E+00 0. -1.
        -14    1    4    4    0    0 -0.18130467600E+03 -0.16865589755E+03  0.99412185610E+02  0.26683136990E+03  0.00000000000E+00 0.  1.
</event>
<event>
12    1  0.8297444E-002  0.2564749E+03  0.7818608E-02  0.1110068E+00
         21   -1    0    0  503  502  0.00000000000E+00  0.00000000000E+00  0.16603738927E+04  0.16603738927E+04  0.00000000000E+00 0. -1.
         21   -1    0    0  501  503 -0.00000000000E+00 -0.00000000000E+00 -0.38834390314E+02  0.38834390314E+02  0.00000000000E+00 0. -1.
          6    2    1    2  501    0  0.17785932354E+03 -0.46154757085E+02  0.82386675472E+03  0.86286489630E+03  0.17892791610E+03 0.  0.
         24    2    3    3    0    0  0.12300228421E+03 -0.94464309397E+01  0.29021460553E+03  0.32512564508E+03  0.79141460960E+02 0.  0.
         -6    2    1    2    0  502 -0.17785932354E+03  0.46154757085E+02  0.79767274762E+03  0.83634338667E+03  0.17153497474E+03 0.  0.
        -24    2    5    5    0    0 -0.94765501794E+02  0.44055275088E+02  0.24881608582E+03  0.28120852356E+03  0.79040632378E+02 0.  0.
          5    1    3    3  501    0  0.54857039323E+02 -0.36708326146E+02  0.53365214919E+03  0.53773925122E+03  0.47000000000E+01 0. -1.
        -11    1    4    4    0    0  0.77540322028E+02  0.23767911019E+02  0.22388824429E+03  0.23812467547E+03  0.00000000000E+00 0.  1.
         12    1    4    4    0    0  0.45461962187E+02 -0.33214341958E+02  0.66326361241E+02  0.87000969610E+02  0.00000000000E+00 0. -1.
         -5    1    5    5    0  502 -0.83093821744E+02  0.20994819971E+01  0.54885666181E+03  0.55513486311E+03  0.47000000000E+01 0.  1.
         11    1    6    6    0    0 -0.95146024524E+02  0.56582222795E+02  0.18041894542E+03  0.21167264771E+03  0.00000000000E+00 0. -1.
        -12    1    6    6    0    0  0.38052273006E+00 -0.12526947707E+02  0.68397140394E+02  0.69535875852E+02  0.00000000000E+00 0.  1.
</event>
<event>
12    1  0.8297444E-002  0.2015723E+03  0.7818608E-02  0.1148460E+00
         21   -1    0    0  501  502  0.00000000000E+00  0.00000000000E+00  0.11495064291E+03  0.11495064291E+03  0.00000000000E+00 0.  1.
         21   -1    0    0  502  503 -0.00000000000E+00 -0.00000000000E+00 -0.47741735347E+03  0.47741735347E+03  0.00000000000E+00 0.  1.
         -6    2    1    2    0  503  0.10484834207E+03  0.92512793023E+01 -0.33242457888E+03  0.38876405331E+03  0.17190877668E+03 0.  0.
        -24    2    3    3    0    0  0.99120267279E+02 -0.49656364820E+02 -0.26987714329E+03  0.30252489123E+03  0.79981594089E+02 0.  0.
          6    2    1    2  501    0 -0.10484834207E+03 -0.92512793023E+01 -0.30042131684E+02  0.20360394307E+03  0.17167782312E+03 0.  0.
         24    2    5    5    0    0 -0.93675106250E+02  0.28278645631E+02 -0.73376091146E+02  0.14500992881E+03  0.77904565791E+02 0.  0.
          5    1    5    5  501    0 -0.11173235821E+02 -0.37529924933E+02  0.43333959463E+02  0.58594014258E+02  0.47000000000E+01 0. -1.
        -13    1    6    6    0    0 -0.94138707419E+02  0.45505587170E+02 -0.49818856565E+02  0.11582216182E+03  0.00000000000E+00 0.  1.
         14    1    6    6    0    0  0.46360116919E+00 -0.17226941539E+02 -0.23557234581E+02  0.29187766991E+02  0.00000000000E+00 0. -1.
         -5    1    3    3    0  503  0.57280747915E+01  0.58907644122E+02 -0.62547435595E+02  0.86239162081E+02  0.47000000000E+01 0.  1.
         13    1    4    4    0    0 -0.12477162322E+02 -0.14256003992E+01 -0.46969258907E+02  0.48619164929E+02  0.00000000000E+00 0. -1.
        -14    1    4    4    0    0  0.11159742960E+03 -0.48230764421E+02 -0.22290788438E+03  0.25390572630E+03  0.00000000000E+00 0.  1.
</event>
<event>
12    1  0.8297444E-002  0.2016383E+03  0.7818608E-02  0.1148620E+00
         21   -1    0    0  503  502  0.00000000000E+00  0.00000000000E+00  0.39711280637E+02  0.39711280637E+02  0.00000000000E+00 0. -1.
         21   -1    0    0  501  503 -0.00000000000E+00 -0.00000000000E+00 -0.15782216836E+04  0.15782216836E+04  0.00000000000E+00 0. -1.
          6    2    1    2  501    0 -0.12054417440E+02  0.10114528803E+03 -0.12528904338E+04  0.12690123943E+04  0.17401821593E+03 0.  0.
         24    2    3    3    0    0  0.32448453422E+02  0.80649896356E+02 -0.45417099687E+03  0.46877780648E+03  0.76967717498E+02 0.  0.
         -6    2    1    2    0  502  0.12054417440E+02 -0.10114528803E+03 -0.28561996922E+03  0.34892057001E+03  0.17260104023E+03 0.  0.
        -24    2    5    5    0    0 -0.59349278896E+02 -0.50922328773E+02 -0.17404356570E+03  0.20717355131E+03  0.80711195810E+02 0.  0.
          5    1    3    3  501    0 -0.44502870862E+02  0.20495391670E+02 -0.79871943689E+03  0.80023458777E+03  0.47000000000E+01 0. -1.
        -13    1    4    4    0    0  0.13281506606E+02  0.42589829414E+02 -0.75343368482E+02  0.87560922571E+02  0.00000000000E+00 0.  1.
         14    1    4    4    0    0  0.19166946817E+02  0.38060066942E+02 -0.37882762839E+03  0.38121688391E+03  0.00000000000E+00 0. -1.
         -5    1    5    5    0  502  0.71403696335E+02 -0.50222959253E+02 -0.11157640352E+03  0.14174701870E+03  0.47000000000E+01 0.  1.
         13    1    6    6    0    0 -0.23228267163E+02 -0.66558973075E+02 -0.89605163932E+02  0.11401199365E+03  0.00000000000E+00 0. -1.
        -14    1    6    6    0    0 -0.36121011733E+02  0.15636644302E+02 -0.84438401763E+02  0.93161557662E+02  0.00000000000E+00 0.  1.
</event>
<event>
12    1  0.8297444E-002  0.1889935E+03  0.7818608E-02  0.1159984E+00
         21   -1    0    0  503  502  0.00000000000E+00  0.00000000000E+00  0.96350442825E+02  0.96350442825E+02  0.00000000000E+00 0.  1.
         21   -1    0    0  501  503 -0.00000000000E+00 -0.00000000000E+00 -0.37331410137E+03  0.37331410137E+03  0.00000000000E+00 0.  1.
          6    2    1    2  501    0  0.33559054970E+02  0.63125459752E+02 -0.17150990565E+03  0.25324127704E+03  0.17205947466E+03 0.  0.
         24    2    3    3    0    0  0.67239390493E+02  0.47945016894E+02 -0.17959414987E+03  0.21513280225E+03  0.84901140485E+02 0.  0.
         -6    2    1    2    0  502 -0.33559054970E+02 -0.63125459752E+02 -0.10545375290E+03  0.21642326716E+03  0.17495000065E+03 0.  0.
        -24    2    5    5    0    0 -0.50406779655E+02 -0.49221175033E+02 -0.37693680048E+01  0.11231284937E+03  0.87386500628E+02 0.  0.
          5    1    3    3  501    0 -0.33680335523E+02  0.15180442858E+02  0.80842442231E+01  0.38108474792E+02  0.47000000000E+01 0. -1.
        -11    1    4    4    0    0  0.80677959767E+02  0.31271564349E+02 -0.97801631834E+02  0.13058331868E+03  0.00000000000E+00 0.  1.
         12    1    4    4    0    0 -0.13438569274E+02  0.16673452545E+02 -0.81792518038E+02  0.84549483564E+02  0.00000000000E+00 0. -1.
         -5    1    5    5    0  502  0.16847724685E+02 -0.13904284719E+02 -0.10168438490E+03  0.10411041779E+03  0.47000000000E+01 0.  1.
         13    1    6    6    0    0  0.22082299048E+02 -0.23880016301E+02  0.10560017022E+02  0.34196448197E+02  0.00000000000E+00 0. -1.
        -14    1    6    6    0    0 -0.72489078703E+02 -0.25341158732E+02 -0.14329385027E+02  0.78116401174E+02  0.00000000000E+00 0.  1.
</event>
<event>
12    1  0.8297444E-002  0.2141388E+03  0.7818608E-02  0.1139130E+00
         21   -1    0    0  501  502  0.00000000000E+00  0.00000000000E+00  0.36143956039E+02  0.36143956039E+02  0.00000000000E+00 0. -1.
         21   -1    0    0  502  503 -0.00000000000E+00 -0.00000000000E+00 -0.13169357008E+04  0.13169357008E+04  0.00000000000E+00 0.  1.
         -6    2    1    2    0  503 -0.91578763468E+02 -0.88567952073E+02 -0.80490693376E+03  0.83290492783E+03  0.17211767705E+03 0.  0.
        -24    2    3    3    0    0 -0.33261353950E+02 -0.84005864699E+01 -0.18004426861E+03  0.20020976660E+03  0.80567514932E+02 0.  0.
          6    2    1    2  501    0  0.91578763468E+02  0.88567952073E+02 -0.47588481101E+03  0.52017472901E+03  0.16698635662E+03 0.  0.
         24    2    5    5    0    0 -0.42399515723E+01  0.44563089933E+02 -0.29905003530E+03  0.31423716094E+03  0.85499845174E+02 0.  0.
          5    1    5    5  501    0  0.95818715041E+02  0.44004862139E+02 -0.17683477570E+03  0.20593756807E+03  0.47000000000E+01 0. -1.
        -11    1    6    6    0    0  0.66727597677E+00 -0.19995433551E+02 -0.15525085343E+03  0.15653462911E+03  0.00000000000E+00 0.  1.
         12    1    6    6    0    0 -0.49072275491E+01  0.64558523485E+02 -0.14379918187E+03  0.15770253182E+03  0.00000000000E+00 0. -1.
         -5    1    3    3    0  503 -0.58317409519E+02 -0.80167365603E+02 -0.62486266514E+03  0.63269516123E+03  0.47000000000E+01 0.  1.
         13    1    4    4    0    0 -0.48875897393E+02 -0.17038248718E+02 -0.61737079165E+02  0.80564397902E+02  0.00000000000E+00 0. -1.
        -14    1    4    4    0    0  0.15614543444E+02  0.86376622483E+01 -0.11830718945E+03  0.11964536870E+03  0.00000000000E+00 0.  1.
</event>
<event>
12    1  0.8297444E-002  0.2927812E+03  0.7818608E-02  0.1088986E+00
         21   -1    0    0  501  502  0.00000000000E+00  0.00000000000E+00  0.14692861051E+04  0.14692861051E+04  0.00000000000E+00 0.  1.
         21   -1    0    0  502  503 -0.00000000000E+00 -0.00000000000E+00 -0.62786371820E+02  0.62786371820E+02  0.00000000000E+00 0. -1.
         -6    2    1    2    0  503 -0.51945333916E+02 -0.23212304216E+03  0.49731638137E+03  0.57710000174E+03  0.17070853644E+03 0.  0.
        -24    2    3    3    0    0 -0.99346221178E+02 -0.15527120109E+03  0.36920217884E+03  0.42029315087E+03  0.79732466796E+02 0.  0.
          6    2    1    2  501    0  0.51945333916E+02  0.23212304216E+03  0.90918335188E+03  0.95497247515E+03  0.16964267311E+03 0.  0.
         24    2    5    5    0    0  0.64734669454E+02  0.12921536302E+03  0.36125009401E+03  0.39729290531E+03  0.80329538288E+02 0.  0.
          5    1    5    5  501    0 -0.12789335538E+02  0.10290767914E+03  0.54793325787E+03  0.55767956984E+03  0.47000000000E+01 0. -1.
        -13    1    6    6    0    0  0.68347923828E+02  0.74296514477E+02  0.29123287721E+03  0.30823367681E+03  0.00000000000E+00 0.  1.
         14    1    6    6    0    0 -0.36132543744E+01  0.54918848545E+02  0.70017216802E+02  0.89059228502E+02  0.00000000000E+00 0. -1.
         -5    1    3    3    0  503  0.47400887262E+02 -0.76851841072E+02  0.12811420252E+03  0.15680685086E+03  0.47000000000E+01 0.  1.
         13    1    4    4    0    0 -0.45563865609E+02 -0.13509617748E+03  0.24530909592E+03  0.28373155545E+03  0.00000000000E+00 0. -1.
        -14    1    4    4    0    0 -0.53782355569E+02 -0.20175023606E+02  0.12389308292E+03  0.13656159542E+03  0.00000000000E+00 0.  1.
</event>
<event>
12    1  0.8297444E-002  0.3650913E+03  0.7818608E-02  0.1056600E+00
         21   -1    0    0  501  502  0.00000000000E+00  0.00000000000E+00  0.13918188435E+03  0.13918188435E+03  0.00000000000E+00 0.  1.
         21   -1    0    0  502  503 -0.00000000000E+00 -0.00000000000E+00 -0.23126797481E+04  0.23126797481E+04  0.00000000000E+00 0. -1.
         -6    2    1    2    0  503  0.16725806653E+03  0.27498081382E+03 -0.20253548010E+04  0.20579974973E+04  0.17234245007E+03 0.  0.
        -24    2    3    3    0    0  0.18790760472E+03  0.21588113142E+03 -0.17743754590E+04  0.17992855030E+04  0.84297810737E+02 0.  0.
          6    2    1    2  501    0 -0.16725806653E+03 -0.27498081382E+03 -0.14814306274E+03  0.39386413515E+03  0.17202581531E+03 0.  0.
         24    2    5    5    0    0 -0.19424411469E+03 -0.22851320859E+03 -0.11808040550E+03  0.33211190044E+03  0.80039175785E+02 0.  0.
          5    1    5    5  501    0  0.26986048164E+02 -0.46467605224E+02 -0.30062657242E+02  0.61752234706E+02  0.47000000000E+01 0. -1.
        -13    1    6    6    0    0 -0.45498093990E+02 -0.10939411179E+03 -0.30238445723E+02  0.12227637486E+03  0.00000000000E+00 0.  1.
         14    1    6    6    0    0 -0.14874602070E+03 -0.11911909681E+03 -0.87841959774E+02  0.20983552558E+03  0.00000000000E+00 0. -1.
         -5    1    3    3    0  503 -0.20649538195E+02  0.59099682402E+02 -0.25097934197E+03  0.25871199428E+03  0.47000000000E+01 0.  1.
         11    1    4    4    0    0  0.68141644802E+02  0.13087845426E+03 -0.74344848958E+03  0.75794993912E+03  0.00000000000E+00 0. -1.
        -12    1    4    4    0    0  0.11976595992E+03  0.85002677161E+02 -0.10309269695E+04  0.10413355639E+04  0.00000000000E+00 0.  1.
</event>
<event>
12    1  0.8297444E-002  0.1759993E+03  0.7818608E-02  0.1174359E+00
         21   -1    0    0  503  502  0.00000000000E+00  0.00000000000E+00  0.10889989102E+03  0.10889989102E+03  0.00000000000E+00 0.  1.
         21   -1    0    0  501  503 -0.00000000000E+00 -0.00000000000E+00 -0.61525335717E+03  0.61525335717E+03  0.00000000000E+00 0.  1.
          6    2    1    2  501    0 -0.68437504957E+01 -0.17269187282E+02 -0.52836716542E+03  0.55690897933E+03  0.17501625070E+03 0.  0.
         24    2    3    3    0    0  0.30387242893E+01 -0.68552857237E+02 -0.21866798692E+03  0.24280175357E+03  0.80176523678E+02 0.  0.
         -6    2    1    2    0  502  0.68437504957E+01  0.17269187282E+02  0.22013699274E+02  0.16724426886E+03  0.16474519951E+03 0.  0.
        -24    2    5    5    0    0  0.17362243647E+02 -0.32477827902E+02 -0.29092755668E+02  0.94999103250E+02  0.82596515522E+02 0.  0.
          5    1    3    3  501    0 -0.98824747850E+01  0.51283669956E+02 -0.30969917850E+03  0.31410722576E+03  0.47000000000E+01 0. -1.
        -13    1    4    4    0    0  0.58534969894E+01 -0.91936472604E+01 -0.15621149064E+03  0.15659123981E+03  0.00000000000E+00 0.  1.
         14    1    4    4    0    0 -0.28147727001E+01 -0.59359209977E+02 -0.62456496286E+02  0.86210513760E+02  0.00000000000E+00 0. -1.
         -5    1    5    5    0  502 -0.10518493152E+02  0.49747015184E+02  0.51106454941E+02  0.72245165614E+02  0.47000000000E+01 0.  1.
         11    1    6    6    0    0  0.22506033270E+02 -0.47523952255E+02 -0.47369299684E+02  0.70773569388E+02  0.00000000000E+00 0. -1.
        -12    1    6    6    0    0 -0.51437896223E+01  0.15046124353E+02  0.18276544016E+02  0.24225533862E+02  0.00000000000E+00 0.  1.
</event>
<event>
12    1  0.8297444E-002  0.2188242E+03  0.7818608E-02  0.1135244E+00
         21   -1    0    0  501  502  0.00000000000E+00  0.00000000000E+00  0.27356369608E+03  0.27356369608E+03  0.00000000000E+00 0.  1.
         21   -1    0    0  502  503 -0.00000000000E+00 -0.00000000000E+00 -0.18758807128E+03  0.18758807128E+03  0.00000000000E+00 0.  1.
         -6    2    1    2    0  503  0.11867568363E+03  0.59622272961E+02 -0.21529022967E+02  0.21734593634E+03  0.17069570556E+03 0.  0.
        -24    2    3    3    0    0  0.12566778562E+03  0.74149494246E+02  0.12062064227E+02  0.17979089956E+03  0.10434909837E+03 0.  0.
          6    2    1    2  501    0 -0.11867568363E+03 -0.59622272961E+02  0.10750464776E+03  0.24380583102E+03  0.17391176105E+03 0.  0.
         24    2    5    5    0    0 -0.13825271607E+03 -0.72705238247E+02  0.11690971200E+03  0.21801883016E+03  0.97285478759E+02 0.  0.
          5    1    5    5  501    0  0.19577032439E+02  0.13082965286E+02 -0.94050642411E+01  0.25787000857E+02  0.47000000000E+01 0. -1.
        -13    1    6    6    0    0 -0.56264544030E+02 -0.81879783483E+02  0.80383080746E+02  0.12779451290E+03  0.00000000000E+00 0.  1.
         14    1    6    6    0    0 -0.81988172037E+02  0.91745452355E+01  0.36526631255E+02  0.90224317260E+02  0.00000000000E+00 0. -1.
         -5    1    3    3    0  503 -0.69921019967E+01 -0.14527221285E+02 -0.33591087194E+02  0.37555036779E+02  0.47000000000E+01 0.  1.
         13    1    4    4    0    0  0.20144711772E+02  0.28520666511E+02  0.47983916932E+02  0.59343863329E+02  0.00000000000E+00 0. -1.
        -14    1    4    4    0    0  0.10552307385E+03  0.45628827735E+02 -0.35921852705E+02  0.12044703623E+03  0.00000000000E+00 0.  1.
</event>
<event>
12    1  0.8297444E-002  0.1855042E+03  0.7818608E-02  0.1162637E+00
         21   -1    0    0  501  502  0.00000000000E+00  0.00000000000E+00  0.29460738983E+03  0.29460738983E+03  0.00000000000E+00 0.  1.
         21   -1    0    0  502  503 -0.00000000000E+00 -0.00000000000E+00 -0.11742545388E+03  0.11742545388E+03  0.00000000000E+00 0.  1.
         -6    2    1    2    0  503  0.64205068217E+02  0.24697667105E+02  0.71795347176E+02  0.19868301542E+03  0.17201192748E+03 0.  0.
        -24    2    3    3    0    0  0.35694831390E+02 -0.33543357282E+02  0.90822840725E+02  0.13094096026E+03  0.80606878564E+02 0.  0.
          6    2    1    2  501    0 -0.64205068217E+02 -0.24697667105E+02  0.10538658877E+03  0.21334982829E+03  0.17227753944E+03 0.  0.
         24    2    5    5    0    0 -0.70146137565E+02 -0.26703353828E+02  0.14023546706E+03  0.17763073812E+03  0.79076818242E+02 0.  0.
          5    1    5    5  501    0  0.59410693484E+01  0.20056867231E+01 -0.34848878295E+02  0.35719090171E+02  0.47000000000E+01 0. -1.
        -13    1    6    6    0    0  0.92376126563E+00 -0.37048058718E+02  0.43412856756E+02  0.57079664692E+02  0.00000000000E+00 0.  1.
         14    1    6    6    0    0 -0.71069898831E+02  0.10344704890E+02  0.96822610306E+02  0.12055107343E+03  0.00000000000E+00 0. -1.
         -5    1    3    3    0  503  0.28510236827E+02  0.58241024387E+02 -0.19027493550E+02  0.67742055153E+02  0.47000000000E+01 0.  1.
         13    1    4    4    0    0  0.47290381367E+02 -0.16529600104E+02  0.14883901745E+02  0.52260294494E+02  0.00000000000E+00 0. -1.
        -14    1    4    4    0    0 -0.11595549978E+02 -0.17013757179E+02  0.75938938980E+02  0.78680665770E+02  0.00000000000E+00 0.  1.
</event>
<event>
12    1  0.8297444E-002  0.2065187E+03  0.7818608E-02  0.1144869E+00
         21   -1    0    0  501  502  0.00000000000E+00  0.00000000000E+00  0.69948658750E+03  0.69948658750E+03  0.00000000000E+00 0.  1.
         21   -1    0    0  502  503 -0.00000000000E+00 -0.00000000000E+00 -0.11259513711E+03  0.11259513711E+03  0.00000000000E+00 0. -1.
         -6    2    1    2    0  503  0.97284912401E+02  0.75331619697E+02  0.17505912029E+02  0.20725934023E+03  0.16586370926E+03 0.  0.
        -24    2    3    3    0    0  0.70523157481E+02 -0.19064197070E+02  0.13361106321E+02  0.10894336409E+03  0.79706825719E+02 0.  0.
          6    2    1    2  501    0 -0.97284912401E+02 -0.75331619697E+02  0.56938553836E+03  0.60482238439E+03  0.16269916488E+03 0.  0.
         24    2    5    5    0    0 -0.19536270592E+02 -0.85976194031E+02  0.26420736343E+03  0.28968119901E+03  0.79599587687E+02 0.  0.
          5    1    5    5  501    0 -0.77748641810E+02  0.10644574334E+02  0.30517817493E+03  0.31514118538E+03  0.47000000000E+01 0. -1.
        -11    1    6    6    0    0 -0.26491304759E+02 -0.99730030539E+02  0.22415314261E+03  0.24676405647E+03  0.00000000000E+00 0.  1.
         12    1    6    6    0    0  0.69550341674E+01  0.13753836509E+02  0.40054220814E+02  0.42917142542E+02  0.00000000000E+00 0. -1.
         -5    1    3    3    0  503  0.26761754921E+02  0.94395816767E+02  0.41448057075E+01  0.98315976138E+02  0.47000000000E+01 0.  1.
         13    1    4    4    0    0  0.55938229888E+02 -0.40974477063E+02 -0.14258728622E+02  0.70790569114E+02  0.00000000000E+00 0. -1.
        -14    1    4    4    0    0  0.14584927593E+02  0.21910279993E+02  0.27619834943E+02  0.38152794977E+02  0.00000000000E+00 0.  1.
</event>
<event>
12    1  0.8297444E-002  0.1879880E+03  0.7818608E-02  0.1160577E+00
         21   -1    0    0  501  502  0.00000000000E+00  0.00000000000E+00  0.11447069172E+03  0.11447069172E+03  0.00000000000E+00 0. -1.
         21   -1    0    0  502  503 -0.00000000000E+00 -0.00000000000E+00 -0.30814481564E+03  0.30814481564E+03  0.00000000000E+00 0.  1.
         -6    2    1    2    0  503  0.65124282084E+02  0.36528997323E+02 -0.81859466857E+02  0.20388736053E+03  0.17115356762E+03 0.  0.
        -24    2    3    3    0    0  0.13668282319E+02  0.77981937483E+01  0.25215560271E+02  0.81574930991E+02  0.75967171325E+02 0.  0.
          6    2    1    2  501    0 -0.65124282084E+02 -0.36528997323E+02 -0.11181465706E+03  0.21872814683E+03  0.17252230268E+03 0.  0.
         24    2    5    5    0    0 -0.97670162678E+02 -0.55779491286E+02 -0.84563815797E+02  0.17188250444E+03  0.98700273887E+02 0.  0.
          5    1    5    5  501    0  0.32545880594E+02  0.19250493964E+02 -0.27250841265E+02  0.46845642393E+02  0.47000000000E+01 0. -1.
        -13    1    6    6    0    0  0.15967822640E+02  0.54072069768E+01  0.12329137199E+01  0.16903529909E+02  0.00000000000E+00 0.  1.
         14    1    6    6    0    0 -0.11363798532E+03 -0.61186698263E+02 -0.85796729517E+02  0.15497897453E+03  0.00000000000E+00 0. -1.
         -5    1    3    3    0  503  0.51455999765E+02  0.28730803574E+02 -0.10707502713E+03  0.12231242954E+03  0.47000000000E+01 0.  1.
         11    1    4    4    0    0 -0.95798665839E+01  0.36268873751E+02  0.24512547360E+02  0.44811494340E+02  0.00000000000E+00 0. -1.
        -12    1    4    4    0    0  0.23248148903E+02 -0.28470680003E+02  0.70301291118E+00  0.36763436651E+02  0.00000000000E+00 0.  1.
</event>
<event>
12    1  0.8297444E-002  0.2159957E+03  0.7818608E-02  0.1138512E+00
         21   -1    0    0  503  502  0.00000000000E+00  0.00000000000E+00  0.44806580663E+03  0.44806580663E+03  0.00000000000E+00 0. -1.
         21   -1    0    0  501  503 -0.00000000000E+00 -0.00000000000E+00 -0.13664590563E+03  0.13664590563E+03  0.00000000000E+00 0.  1.
          6    2    1    2  501    0  0.87652494438E+02  0.76192727040E+02  0.24911289567E+01  0.20776196353E+03  0.17225137541E+03 0.  0.
         24    2    3    3    0    0  0.67714258486E+02  0.99631090786E+02  0.47572356088E+02  0.15297786741E+03  0.81409605088E+02 0.  0.
         -6    2    1    2    0  502 -0.87652494438E+02 -0.76192727040E+02  0.30892877205E+03  0.37694974873E+03  0.18211489625E+03 0.  0.
        -24    2    5    5    0    0 -0.11251304070E+02 -0.89535123830E+02  0.25634517287E+03  0.28312924807E+03  0.79411543354E+02 0.  0.
          5    1    3    3  501    0  0.19938235953E+02 -0.23438363746E+02 -0.45081227132E+02  0.54784096120E+02  0.47000000000E+01 0. -1.
        -11    1    4    4    0    0  0.61678154694E+02  0.55364096155E+02 -0.61456380174E+01  0.83109246033E+02  0.00000000000E+00 0.  1.
         12    1    4    4    0    0  0.60361037920E+01  0.44266994631E+02  0.53717994106E+02  0.69868621379E+02  0.00000000000E+00 0. -1.
         -5    1    5    5    0  502 -0.76401190368E+02  0.13342396789E+02  0.52583599179E+02  0.93820500662E+02  0.47000000000E+01 0.  1.
         13    1    6    6    0    0  0.27439373119E+02 -0.15658690916E+02  0.11256250426E+03  0.11691206595E+03  0.00000000000E+00 0. -1.
        -14    1    6    6    0    0 -0.38690677189E+02 -0.73876432914E+02  0.14378266860E+03  0.16621718212E+03  0.00000000000E+00 0.  1.
</event>
<event>
12    1  0.8297444E-002  0.1965788E+03  0.7818608E-02  0.1152824E+00
         21   -1    0    0  503  502  0.00000000000E+00  0.00000000000E+00  0.50543295750E+03  0.50543295750E+03  0.00000000000E+00 0.  1.
         21   -1    0    0  501  503 -0.00000000000E+00 -0.00000000000E+00 -0.77517023965E+02  0.77517023965E+02  0.00000000000E+00 0.  1.
          6    2    1    2  501    0  0.85896917537E+02 -0.36590280888E+02  0.25295941210E+03  0.32036181142E+03  0.17299160948E+03 0.  0.
         24    2    3    3    0    0  0.10907580522E+03 -0.15880839418E+02  0.10112303694E+03  0.16530531649E+03  0.70357989684E+02 0.  0.
         -6    2    1    2    0  502 -0.85896917537E+02  0.36590280888E+02  0.17495652144E+03  0.26258817004E+03  0.17212098523E+03 0.  0.
        -24    2    5    5    0    0 -0.46405444459E+02  0.62971917475E+02  0.18293087073E+03  0.21420173143E+03  0.79370968336E+02 0.  0.
          5    1    3    3  501    0 -0.23178887688E+02 -0.20709441470E+02  0.15183637516E+03  0.15505649494E+03  0.47000000000E+01 0. -1.
        -13    1    4    4    0    0  0.60090927514E+02  0.24886935653E+02  0.36674644718E+02  0.74667989801E+02  0.00000000000E+00 0.  1.
         14    1    4    4    0    0  0.48984877711E+02 -0.40767775070E+02  0.64448392225E+02  0.90637326686E+02  0.00000000000E+00 0. -1.
         -5    1    5    5    0  502 -0.39491473078E+02 -0.26381636587E+02 -0.79743492993E+01  0.48386438613E+02  0.47000000000E+01 0.  1.
         11    1    6    6    0    0 -0.85630459580E+01  0.12358557753E+02 -0.50671007947E+01  0.15866165771E+02  0.00000000000E+00 0. -1.
        -12    1    6    6    0    0 -0.37842398500E+02  0.50613359722E+02  0.18799797153E+03  0.19833556566E+03  0.00000000000E+00 0.  1.
</event>
<event>
12    1  0.8297444E-002  0.4675871E+03  0.7818608E-02  0.1022648E+00
         21   -1    0    0  501  502  0.00000000000E+00  0.00000000000E+00  0.46934643516E+03  0.46934643516E+03  0.00000000000E+00 0. -1.
         21   -1    0    0  502  503 -0.00000000000E+00 -0.00000000000E+00 -0.65980564409E+03  0.65980564409E+03  0.00000000000E+00 0.  1.
         -6    2    1    2    0  503  0.34721950338E+03  0.26069273707E+03 -0.40178843602E+03  0.61602660905E+03  0.17185095009E+03 0.  0.
        -24    2    3    3    0    0  0.22415557478E+03  0.22994064599E+03 -0.34167077939E+03  0.47557503638E+03  0.79462389532E+02 0.  0.
          6    2    1    2  501    0 -0.34721950338E+03 -0.26069273707E+03  0.21132922709E+03  0.51312547020E+03  0.17353852385E+03 0.  0.
         24    2    5    5    0    0 -0.24431876717E+03 -0.11331861089E+03  0.85390663364E+02  0.29360256385E+03  0.79863211454E+02 0.  0.
          5    1    5    5  501    0 -0.10290073620E+03 -0.14737412618E+03  0.12593856373E+03  0.21952290635E+03  0.47000000000E+01 0. -1.
        -13    1    6    6    0    0 -0.23601147667E+03 -0.84461799921E+02  0.79738748946E+02  0.26304653742E+03  0.00000000000E+00 0.  1.
         14    1    6    6    0    0 -0.83072905056E+01 -0.28856810967E+02  0.56519144176E+01  0.30556026432E+02  0.00000000000E+00 0. -1.
         -5    1    3    3    0  503  0.12306392860E+03  0.30752091077E+02 -0.60117656630E+02  0.14045157267E+03  0.47000000000E+01 0.  1.
         13    1    4    4    0    0  0.19198003371E+03  0.16279863633E+03 -0.22758741266E+03  0.33934607665E+03  0.00000000000E+00 0. -1.
        -14    1    4    4    0    0  0.32175541072E+02  0.67142009662E+02 -0.11408336672E+03  0.13622895973E+03  0.00000000000E+00 0.  1.
</event>
<event>
12    1  0.8297444E-002  0.1778179E+03  0.7818608E-02  0.1170690E+00
         21   -1    0    0  503  502  0.00000000000E+00  0.00000000000E+00  0.64803780442E+02  0.64803780442E+02  0.00000000000E+00 0.  1.
         21   -1    0    0  501  503 -0.00000000000E+00 -0.00000000000E+00 -0.14285481475E+04  0.14285481475E+04  0.00000000000E+00 0.  1.
          6    2    1    2  501    0 -0.42867860014E+02  0.33105726956E+01 -0.12924196101E+04  0.13045948282E+04  0.17254160009E+03 0.  0.
         24    2    3    3    0    0  0.11672890846E+02 -0.53436635259E+02 -0.83320292007E+03  0.83865813984E+03  0.78285625364E+02 0.  0.
         -6    2    1    2    0  502  0.42867860014E+02 -0.33105726956E+01 -0.71324756963E+02  0.18875709979E+03  0.16939128801E+03 0.  0.
        -24    2    5    5    0    0  0.16508671587E+02 -0.33555953824E+02 -0.10404357716E+03  0.13677439989E+03  0.80521004972E+02 0.  0.
          5    1    3    3  501    0 -0.54540750860E+02  0.56747207955E+02 -0.45921669006E+03  0.46593668835E+03  0.47000000000E+01 0. -1.
        -11    1    4    4    0    0 -0.15650059820E+02  0.13096307337E+02 -0.28952477330E+03  0.29024305675E+03  0.00000000000E+00 0.  1.
         12    1    4    4    0    0  0.27322950666E+02 -0.66532942596E+02 -0.54367814677E+03  0.54841508309E+03  0.00000000000E+00 0. -1.
         -5    1    5    5    0  502  0.26359188426E+02  0.30245381128E+02  0.32718820199E+02  0.51982699904E+02  0.47000000000E+01 0.  1.
         13    1    6    6    0    0 -0.17817245569E+02  0.11376808735E+02 -0.35080558816E+01  0.21428776743E+02  0.00000000000E+00 0. -1.
        -14    1    6    6    0    0  0.34325917156E+02 -0.44932762558E+02 -0.10053552128E+03  0.11534562315E+03  0.00000000000E+00 0.  1.
</event>
<event>
12    1  0.8297444E-002  0.1876477E+03  0.7818608E-02  0.1161550E+00
         21   -1    0    0  503  502  0.00000000000E+00  0.00000000000E+00  0.36532516164E+03  0.36532516164E+03  0.00000000000E+00 0. -1.
         21   -1    0    0  501  503 -0.00000000000E+00 -0.00000000000E+00 -0.11554245997E+03  0.11554245997E+03  0.00000000000E+00 0. -1.
          6    2    1    2  501    0  0.12001432410E+02 -0.69534839156E+02  0.22687276257E+03  0.29182654163E+03  0.16944719463E+03 0.  0.
         24    2    3    3    0    0  0.29471816309E+02  0.11493107659E+02  0.16530486661E+03  0.18846582234E+03  0.84811483815E+02 0.  0.
         -6    2    1    2    0  502 -0.12001432410E+02  0.69534839156E+02  0.22909939095E+02  0.18904107998E+03  0.17387505967E+03 0.  0.
        -24    2    5    5    0    0 -0.17093390722E+02  0.97782063324E+02  0.58999509788E+02  0.14269045080E+03  0.83821874708E+02 0.  0.
          5    1    3    3  501    0 -0.17470383899E+02 -0.81027946816E+02  0.61567895965E+02  0.10336071929E+03  0.47000000000E+01 0. -1.
        -13    1    4    4    0    0 -0.28047845176E+02  0.14410608154E+02  0.43457431954E+02  0.53692603200E+02  0.00000000000E+00 0.  1.
         14    1    4    4    0    0  0.57519661484E+02 -0.29175004944E+01  0.12184743465E+03  0.13477321914E+03  0.00000000000E+00 0. -1.
         -5    1    5    5    0  502  0.50919583124E+01 -0.28247224167E+02 -0.36089570693E+02  0.46350629181E+02  0.47000000000E+01 0.  1.
         13    1    6    6    0    0 -0.47515355641E+02  0.33455339222E+02  0.19448878385E+02  0.61279911999E+02  0.00000000000E+00 0. -1.
        -14    1    6    6    0    0  0.30421964919E+02  0.64326724102E+02  0.39550631403E+02  0.81410538800E+02  0.00000000000E+00 0.  1.
</event>
<event>
12    1  0.8297444E-002  0.2023269E+03  0.7818608E-02  0.1147864E+00
         21   -1    0    0  503  502  0.00000000000E+00  0.00000000000E+00  0.43772381681E+03  0.43772381681E+03  0.00000000000E+00 0. -1.
         21   -1    0    0  501  503 -0.00000000000E+00 -0.00000000000E+00 -0.20221748261E+03  0.20221748261E+03  0.00000000000E+00 0. -1.
          6    2    1    2  501    0 -0.50759776615E+02 -0.94679201212E+02 -0.11696601818E+03  0.23370324624E+03  0.17145101874E+03 0.  0.
         24    2    3    3    0    0 -0.57176618574E+02 -0.57754077606E+02 -0.28948224618E+01  0.11354098799E+03  0.79236839690E+02 0.  0.
         -6    2    1    2    0  502  0.50759776615E+02  0.94679201212E+02  0.35247235238E+03  0.40623805319E+03  0.17103184090E+03 0.  0.
        -24    2    5    5    0    0 -0.32795600688E+02  0.70013205056E+02  0.15895862825E+03  0.19396567187E+03  0.79858850877E+02 0.  0.
          5    1    3    3  501    0  0.64168419589E+01 -0.36925123606E+02 -0.11407119572E+03  0.12016225825E+03  0.47000000000E+01 0. -1.
        -11    1    4    4    0    0  0.65356267573E+01  0.13961273565E+01  0.22095227498E+02  0.23083818291E+02  0.00000000000E+00 0.  1.
         12    1    4    4    0    0 -0.63712245331E+02 -0.59150204962E+02 -0.24990049960E+02  0.90457169695E+02  0.00000000000E+00 0. -1.
         -5    1    5    5    0  502  0.83555377303E+02  0.24665996156E+02  0.19351372413E+03  0.21227238132E+03  0.47000000000E+01 0.  1.
         13    1    6    6    0    0 -0.36726443407E+02  0.52757218705E+01  0.98670350203E+02  0.10541585695E+03  0.00000000000E+00 0. -1.
        -14    1    6    6    0    0  0.39308427198E+01  0.64737483185E+02  0.60288278048E+02  0.88549814927E+02  0.00000000000E+00 0.  1.
</event>
<event>
12    1  0.8297444E-002  0.2596698E+03  0.7818608E-02  0.1107505E+00
         21   -1    0    0  501  502  0.00000000000E+00  0.00000000000E+00  0.16232384916E+03  0.16232384916E+03  0.00000000000E+00 0. -1.
         21   -1    0    0  502  503 -0.00000000000E+00 -0.00000000000E+00 -0.46105498395E+03  0.46105498395E+03  0.00000000000E+00 0. -1.
         -6    2    1    2    0  503 -0.91584200458E+02  0.16966349805E+03 -0.24901022416E+03  0.35899164001E+03  0.17232393194E+03 0.  0.
        -24    2    3    3    0    0 -0.76691134282E+02  0.10394309770E+03 -0.24828855911E+03  0.29143732673E+03  0.81257671573E+02 0.  0.
          6    2    1    2  501    0  0.91584200458E+02 -0.16966349805E+03 -0.49720910627E+02  0.26438719310E+03  0.17393979010E+03 0.  0.
         24    2    5    5    0    0  0.99770619994E+02 -0.61793778541E+02 -0.60789569885E+02  0.15554097558E+03  0.82005948546E+02 0.  0.
          5    1    5    5  501    0 -0.81864195360E+01 -0.10786971951E+03  0.11068659257E+02  0.10884621752E+03  0.47000000000E+01 0. -1.
        -13    1    6    6    0    0  0.62001649430E+02 -0.76999236026E+02 -0.58257031230E+02  0.11474741203E+03  0.00000000000E+00 0.  1.
         14    1    6    6    0    0  0.37768970563E+02  0.15205457484E+02 -0.25325386547E+01  0.40793563546E+02  0.00000000000E+00 0. -1.
         -5    1    3    3    0  503 -0.14893066175E+02  0.65720400353E+02 -0.72166504913E+00  0.67554313283E+02  0.47000000000E+01 0.  1.
         13    1    4    4    0    0 -0.45070969344E+02  0.97505539075E+02 -0.12903496933E+03  0.16789504381E+03  0.00000000000E+00 0. -1.
        -14    1    4    4    0    0 -0.31620164938E+02  0.64375586204E+01 -0.11925358978E+03  0.12354228291E+03  0.00000000000E+00 0.  1.
</event>
<event>
12    1  0.8297444E-002  0.2164114E+03  0.7818608E-02  0.1136756E+00
         21   -1    0    0  501  502  0.00000000000E+00  0.00000000000E+00  0.73667909207E+03  0.73667909207E+03  0.00000000000E+00 0. -1.
         21   -1    0    0  502  503 -0.00000000000E+00 -0.00000000000E+00 -0.57384364833E+03  0.57384364833E+03  0.00000000000E+00 0.  1.
         -6    2    1    2    0  503  0.65099186192E+02  0.10850379710E+03 -0.53662028975E+03  0.57861492557E+03  0.17556457129E+03 0.  0.
        -24    2    3    3    0    0 -0.23316741970E+02  0.66339953366E+02 -0.37172443343E+03  0.38676107624E+03  0.80376711907E+02 0.  0.
          6    2    1    2  501    0 -0.65099186192E+02 -0.10850379710E+03  0.69945573349E+03  0.73190781483E+03  0.17446990649E+03 0.  0.
         24    2    5    5    0    0  0.69781039177E+01 -0.72916423838E+02  0.21346924134E+03  0.23929584032E+03  0.79547994279E+02 0.  0.
          5    1    5    5  501    0 -0.72077290110E+02 -0.35587373257E+02  0.48598649215E+03  0.49261197452E+03  0.47000000000E+01 0. -1.
        -11    1    6    6    0    0  0.28684152458E+02 -0.56176178193E+01  0.26699069966E+02  0.39587606258E+02  0.00000000000E+00 0.  1.
         12    1    6    6    0    0 -0.21706048540E+02 -0.67298806019E+02  0.18677017137E+03  0.19970823406E+03  0.00000000000E+00 0. -1.
         -5    1    3    3    0  503  0.88415928162E+02  0.42163843729E+02 -0.16489585632E+03  0.19185384933E+03  0.47000000000E+01 0.  1.
         11    1    4    4    0    0  0.13792347171E+02 -0.13053410234E+02 -0.74849732848E+02  0.77221129664E+02  0.00000000000E+00 0. -1.
        -12    1    4    4    0    0 -0.37109089140E+02  0.79393363600E+02 -0.29687470058E+03  0.30953994658E+03  0.00000000000E+00 0.  1.
</event>
<event>
12    1  0.8297444E-002  0.2005811E+03  0.7818608E-02  0.1149666E+00
         21   -1    0    0  501  502  0.00000000000E+00  0.00000000000E+00  0.23189050881E+04  0.23189050881E+04  0.00000000000E+00 0. -1.
         21   -1    0    0  502  503 -0.00000000000E+00 -0.00000000000E+00 -0.17211294516E+02  0.17211294516E+02  0.00000000000E+00 0. -1.
         -6    2    1    2    0  503 -0.48880738616E+02 -0.89612136482E+02  0.12063024277E+04  0.12228648041E+04  0.17266476321E+03 0.  0.
        -24    2    3    3    0    0  0.36311705047E+02 -0.69058271168E+02  0.60203124235E+03  0.61225366003E+03  0.79532023198E+02 0.  0.
          6    2    1    2  501    0  0.48880738616E+02  0.89612136482E+02  0.10953913659E+04  0.11132515785E+04  0.17037362169E+03 0.  0.
         24    2    5    5    0    0  0.28631894082E+02  0.10025415289E+02  0.27164109073E+03  0.28540457107E+03  0.82137644866E+02 0.  0.
          5    1    5    5  501    0  0.20248844534E+02  0.79586721193E+02  0.82375027513E+03  0.82784700740E+03  0.47000000000E+01 0. -1.
        -13    1    6    6    0    0 -0.27577343010E+02 -0.12911766180E+01  0.12364827554E+03  0.12669282943E+03  0.00000000000E+00 0.  1.
         14    1    6    6    0    0  0.56209237092E+02  0.11316591907E+02  0.14799281518E+03  0.15871174163E+03  0.00000000000E+00 0. -1.
         -5    1    3    3    0  503 -0.85192443663E+02 -0.20553865313E+02  0.60427118535E+03  0.61061114409E+03  0.47000000000E+01 0.  1.
         11    1    4    4    0    0  0.17726068754E+02 -0.35899233502E+02  0.52326751860E+03  0.52479697456E+03  0.00000000000E+00 0. -1.
        -12    1    4    4    0    0  0.18585636293E+02 -0.33159037666E+02  0.78763723750E+02  0.87456685475E+02  0.00000000000E+00 0.  1.
</event>
<event>
12    1  0.8297444E-002  0.2324411E+03  0.7818608E-02  0.1127655E+00
         21   -1    0    0  501  502  0.00000000000E+00  0.00000000000E+00  0.42821910131E+02  0.42821910131E+02  0.00000000000E+00 0. -1.
         21   -1    0    0  502  503 -0.00000000000E+00 -0.00000000000E+00 -0.11820880434E+04  0.11820880434E+04  0.00000000000E+00 0.  1.
         -6    2    1    2    0  503  0.88579205751E+02 -0.97080919871E+02 -0.56977036702E+03  0.61535937136E+03  0.19172350949E+03 0.  0.
        -24    2    3    3    0    0  0.11355787302E+03 -0.16059279791E+02 -0.42992509305E+03  0.45175243192E+03  0.78047313359E+02 0.  0.
          6    2    1    2  501    0 -0.88579205751E+02  0.97080919871E+02 -0.56949576624E+03  0.60955058217E+03  0.17307658350E+03 0.  0.
         24    2    5    5    0    0 -0.65145052533E+02  0.47787032990E+02 -0.52964383302E+03  0.54180611079E+03  0.80646099953E+02 0.  0.
          5    1    5    5  501    0 -0.23434153218E+02  0.49293886881E+02 -0.39851933224E+02  0.67744471380E+02  0.47000000000E+01 0. -1.
        -11    1    6    6    0    0 -0.34308440506E+02  0.66055538788E+02 -0.28541139357E+03  0.29495773744E+03  0.00000000000E+00 0.  1.
         12    1    6    6    0    0 -0.30836612028E+02 -0.18268505798E+02 -0.24423243945E+03  0.24684837335E+03  0.00000000000E+00 0. -1.
         -5    1    3    3    0  503 -0.24978667269E+02 -0.81021640080E+02 -0.13984527397E+03  0.16360693944E+03  0.47000000000E+01 0.  1.
         13    1    4    4    0    0  0.10878780705E+03  0.65309062644E+01 -0.28740867318E+03  0.30737791905E+03  0.00000000000E+00 0. -1.
        -14    1    4    4    0    0  0.47700659692E+01 -0.22590186055E+02 -0.14251641987E+03  0.14437451287E+03  0.00000000000E+00 0.  1.
</event>
<event>
12    1  0.8297444E-002  0.1740712E+03  0.7818608E-02  0.1173703E+00
         21   -1    0    0  503  502  0.00000000000E+00  0.00000000000E+00  0.55542761832E+02  0.55542761832E+02  0.00000000000E+00 0. -1.
         21   -1    0    0  501  503 -0.00000000000E+00 -0.00000000000E+00 -0.67967563431E+03  0.67967563431E+03  0.00000000000E+00 0. -1.
          6    2    1    2  501    0 -0.15306737955E+02 -0.20842515050E+02 -0.14838618973E+03  0.22862617631E+03  0.17199639686E+03 0.  0.
         24    2    3    3    0    0 -0.31141359195E+02  0.60030779302E+01 -0.16998470506E+03  0.19041613893E+03  0.79735091490E+02 0.  0.
         -6    2    1    2    0  502  0.15306737955E+02  0.20842515050E+02 -0.47574668275E+03  0.50659221983E+03  0.17213966534E+03 0.  0.
        -24    2    5    5    0    0  0.75955764217E+02  0.30642448670E+01 -0.27868023988E+03  0.29958583301E+03  0.79437570004E+02 0.  0.
          5    1    3    3  501    0  0.15834621240E+02 -0.26845592980E+02  0.21598515330E+02  0.38210037382E+02  0.47000000000E+01 0. -1.
        -13    1    4    4    0    0  0.19703281389E+02  0.18866211904E+02 -0.28167349157E+02  0.39211641226E+02  0.00000000000E+00 0.  1.
         14    1    4    4    0    0 -0.50844640584E+02 -0.12863133974E+02 -0.14181735590E+03  0.15120449771E+03  0.00000000000E+00 0. -1.
         -5    1    5    5    0  502 -0.60649026261E+02  0.17778270182E+02 -0.19706644288E+03  0.20700638682E+03  0.47000000000E+01 0.  1.
         11    1    6    6    0    0  0.52110632169E+02  0.17844508180E+02 -0.70216992586E+02  0.89243321907E+02  0.00000000000E+00 0. -1.
        -12    1    6    6    0    0  0.23845132048E+02 -0.14780263313E+02 -0.20846324729E+03  0.21034251110E+03  0.00000000000E+00 0.  1.
</event>
<event>
12    1  0.8297444E-002  0.2358079E+03  0.7818608E-02  0.1122732E+00
         21   -1    0    0  503  502  0.00000000000E+00  0.00000000000E+00  0.11377616985E+04  0.11377616985E+04  0.00000000000E+00 0.  1.
         21   -1    0    0  501  503 -0.00000000000E+00 -0.00000000000E+00 -0.52627520586E+02  0.52627520586E+02  0.00000000000E+00 0.  1.
          6    2    1    2  501    0 -0.13510540494E+03  0.85386209120E+02  0.70518050572E+03  0.74356230319E+03  0.17338130787E+03 0.  0.
         24    2    3    3    0    0 -0.15551188262E+02  0.44549058268E+02  0.43862054706E+03  0.44854165106E+03  0.81087424366E+02 0.  0.
         -6    2    1    2    0  502  0.13510540494E+03 -0.85386209120E+02  0.37995367215E+03  0.44682691585E+03  0.17246803937E+03 0.  0.
        -24    2    5    5    0    0  0.47286180535E+02 -0.52503629069E+02  0.91266655930E+02  0.14325523803E+03  0.84851911017E+02 0.  0.
          5    1    3    3  501    0 -0.11955421668E+03  0.40837150852E+02  0.26655995867E+03  0.29502065212E+03  0.47000000000E+01 0. -1.
        -13    1    4    4    0    0  0.28857202325E+01  0.61593717903E+02  0.21979909547E+03  0.22828437493E+03  0.00000000000E+00 0.  1.
         14    1    4    4    0    0 -0.18436908495E+02 -0.17044659635E+02  0.21882145159E+03  0.22025727614E+03  0.00000000000E+00 0. -1.
         -5    1    5    5    0  502  0.87819224404E+02 -0.32882580050E+02  0.28868701622E+03  0.30357167783E+03  0.47000000000E+01 0.  1.
         11    1    6    6    0    0  0.38505936756E+02  0.14095653213E+02  0.21094457425E+02  0.46112587642E+02  0.00000000000E+00 0. -1.
        -12    1    6    6    0    0  0.87802437785E+01 -0.66599282282E+02  0.70172198505E+02  0.97142650388E+02  0.00000000000E+00 0.  1.
</event>
<event>
12    1  0.8297444E-002  0.2894247E+03  0.7818608E-02  0.1090671E+00
         21   -1    0    0  503  502  0.00000000000E+00  0.00000000000E+00  0.90293441015E+02  0.90293441015E+02  0.00000000000E+00 0. -1.
         21   -1    0    0  501  503 -0.00000000000E+00 -0.00000000000E+00 -0.93195690817E+03  0.93195690817E+03  0.00000000000E+00 0. -1.
          6    2    1    2  501    0  0.74523095672E+02 -0.22067368962E+03 -0.45743505758E+03  0.54130719031E+03  0.17180242517E+03 0.  0.
         24    2    3    3    0    0  0.10437927115E+03 -0.17865917571E+03 -0.42820149606E+03  0.48186560795E+03  0.77613204988E+02 0.  0.
         -6    2    1    2    0  502 -0.74523095672E+02  0.22067368962E+03 -0.38422840957E+03  0.48094315887E+03  0.17153507590E+03 0.  0.
        -24    2    5    5    0    0 -0.30427752476E+01  0.44624257845E+02 -0.18344345884E+03  0.20446617054E+03  0.78449534313E+02 0.  0.
          5    1    3    3  501    0 -0.29856175478E+02 -0.42014513917E+02 -0.29233561520E+02  0.59441582356E+02  0.47000000000E+01 0. -1.
        -13    1    4    4    0    0 -0.10574906306E+02 -0.28223673134E+02 -0.80538308502E+02  0.85993159641E+02  0.00000000000E+00 0.  1.
         14    1    4    4    0    0  0.11495417746E+03 -0.15043550257E+03 -0.34766318756E+03  0.39587244831E+03  0.00000000000E+00 0. -1.
         -5    1    5    5    0  502 -0.71480320425E+02  0.17604943178E+03 -0.20078495073E+03  0.27647698833E+03  0.47000000000E+01 0.  1.
         11    1    6    6    0    0  0.37959411480E+01  0.60772224413E+02 -0.17442272361E+03  0.18474566014E+03  0.00000000000E+00 0. -1.
        -12    1    6    6    0    0 -0.68387163956E+01 -0.16147966568E+02 -0.90207352280E+01  0.19720510396E+02  0.00000000000E+00 0.  1.
</event>
<event>
12    1  0.8297444E-002  0.1850088E+03  0.7818608E-02  0.1163415E+00
         21   -1    0    0  501  502  0.00000000000E+00  0.00000000000E+00  0.86755557273E+03  0.86755557273E+03  0.00000000000E+00 0. -1.
         21   -1    0    0  502  503 -0.00000000000E+00 -0.00000000000E+00 -0.83582082302E+02  0.83582082302E+02  0.00000000000E+00 0. -1.
         -6    2    1    2    0  503  0.99305701813E+01  0.69733992768E+02  0.45903571525E+02  0.19061849519E+03  0.17107550046E+03 0.  0.
        -24    2    3    3    0    0  0.72121988899E+02  0.29974634482E+02  0.18103117595E+02  0.11160245649E+03  0.77635851467E+02 0.  0.
          6    2    1    2  501    0 -0.99305701813E+01 -0.69733992768E+02  0.73806991891E+03  0.76051915984E+03  0.16935389373E+03 0.  0.
         24    2    5    5    0    0 -0.27001645018E+02  0.22144906455E+02  0.44466754762E+03  0.45255780643E+03  0.76549686736E+02 0.  0.
          5    1    5    5  501    0  0.17071074837E+02 -0.91878899223E+02  0.29340237129E+03  0.30796135342E+03  0.47000000000E+01 0. -1.
        -11    1    6    6    0    0 -0.21072143661E+02  0.35320469456E+02  0.43002371358E+03  0.43198607043E+03  0.00000000000E+00 0.  1.
         12    1    6    6    0    0 -0.59295013564E+01 -0.13175563002E+02  0.14643834031E+02  0.20571735996E+02  0.00000000000E+00 0. -1.
         -5    1    3    3    0  503 -0.62191418717E+02  0.39759358286E+02  0.27800453930E+02  0.79016038702E+02  0.47000000000E+01 0.  1.
         11    1    4    4    0    0  0.23153637259E+01 -0.18897237287E+01 -0.23925387901E+02  0.24111328275E+02  0.00000000000E+00 0. -1.
        -12    1    4    4    0    0  0.69806625173E+02  0.31864358211E+02  0.42028505496E+02  0.87491128216E+02  0.00000000000E+00 0.  1.
</event>
<event>
12    1  0.8297444E-002  0.2086371E+03  0.7818608E-02  0.1142656E+00
         21   -1    0    0  501  502  0.00000000000E+00  0.00000000000E+00  0.22286165571E+03  0.22286165571E+03  0.00000000000E+00 0.  1.
         21   -1    0    0  502  503 -0.00000000000E+00 -0.00000000000E+00 -0.23184192597E+03  0.23184192597E+03  0.00000000000E+00 0.  1.
         -6    2    1    2    0  503  0.51753612351E+02  0.10474376270E+03 -0.94762497357E+02  0.22914923920E+03  0.17285760240E+03 0.  0.
        -24    2    3    3    0    0  0.91420552625E+00  0.13764438553E+02  0.10947647615E+02  0.80627835163E+02  0.78681009617E+02 0.  0.
          6    2    1    2  501    0 -0.51753612351E+02 -0.10474376270E+03  0.85782227099E+02  0.22555434248E+03  0.17281920817E+03 0.  0.
         24    2    5    5    0    0 -0.23756416861E+02 -0.13965898499E+03  0.57786297090E+02  0.17255643875E+03  0.79796422187E+02 0.  0.
          5    1    5    5  501    0 -0.27997195489E+02  0.34915222290E+02  0.27995930009E+02  0.52997903731E+02  0.47000000000E+01 0. -1.
        -11    1    6    6    0    0 -0.17724878016E+02 -0.11350618930E+03  0.69763563736E+01  0.11509342231E+03  0.00000000000E+00 0.  1.
         12    1    6    6    0    0 -0.60315388456E+01 -0.26152795682E+02  0.50809940717E+02  0.57463016441E+02  0.00000000000E+00 0. -1.
         -5    1    3    3    0  503  0.50839406824E+02  0.90979324142E+02 -0.10571014497E+03  0.14852140404E+03  0.47000000000E+01 0.  1.
         13    1    4    4    0    0  0.30785468624E+02 -0.29385145972E+01 -0.18018108826E+02  0.35791510056E+02  0.00000000000E+00 0. -1.
        -14    1    4    4    0    0 -0.29871263097E+02  0.16702953150E+02  0.28965756440E+02  0.44836325107E+02  0.00000000000E+00 0.  1.
</event>
<event>
12    1  0.8297444E-002  0.2031698E+03  0.7818608E-02  0.1147681E+00
         21   -1    0    0  501  502  0.00000000000E+00  0.00000000000E+00  0.90130823490E+02  0.90130823490E+02  0.00000000000E+00 0. -1.
         21   -1    0    0  502  503 -0.00000000000E+00 -0.00000000000E+00 -0.54233260867E+03  0.54233260867E+03  0.00000000000E+00 0. -1.
         -6    2    1    2    0  503  0.90545367878E+02  0.41274357733E+02 -0.95452255965E+02  0.22191724220E+03  0.17387953578E+03 0.  0.
        -24    2    3    3    0    0  0.38682007716E+02  0.74811104492E+02 -0.10060995989E+02  0.11642658483E+03  0.79755419497E+02 0.  0.
          6    2    1    2  501    0 -0.90545367878E+02 -0.41274357733E+02 -0.35674952921E+03  0.41054618996E+03  0.17713246808E+03 0.  0.
         24    2    5    5    0    0 -0.14594803659E+02  0.39007084200E+02 -0.18502257148E+03  0.20627716114E+03  0.81131709826E+02 0.  0.
          5    1    5    5  501    0 -0.75950564219E+02 -0.80281441933E+02 -0.17172695774E+03  0.20426902883E+03  0.47000000000E+01 0. -1.
        -13    1    6    6    0    0 -0.10963147291E+02  0.13115774521E+02 -0.17851909650E+03  0.17933566839E+03  0.00000000000E+00 0.  1.
         14    1    6    6    0    0 -0.36316563678E+01  0.25891309679E+02 -0.65034749742E+01  0.26941492750E+02  0.00000000000E+00 0. -1.
         -5    1    3    3    0  503  0.51863360162E+02 -0.33536746759E+02 -0.85391259976E+02  0.10549065736E+03  0.47000000000E+01 0.  1.
         13    1    4    4    0    0  0.51597626751E+02  0.34533213709E+02 -0.30812014166E+02  0.69312611784E+02  0.00000000000E+00 0. -1.
        -14    1    4    4    0    0 -0.12915619035E+02  0.40277890783E+02  0.20751018177E+02  0.47113973048E+02  0.00000000000E+00 0.  1.
</event>
<event>
12    1  0.8297444E-002  0.1861990E+03  0.7818608E-02  0.1163103E+00
         21   -1    0    0  501  502  0.00000000000E+00  0.00000000000E+00  0.98288597853E+02  0.98288597853E+02  0.00000000000E+00 0.  1.
         21   -1    0    0  502  503 -0.00000000000E+00 -0.00000000000E+00 -0.37868986515E+03  0.37868986515E+03  0.00000000000E+00 0.  1.
         -6    2    1    2    0  503  0.13596463549E+02  0.74623576094E+02 -0.21129789909E+03  0.27836997849E+03  0.16458888429E+03 0.  0.
        -24    2    3    3    0    0 -0.66724967935E+01 -0.21962735577E+02 -0.10010955573E+03  0.12962629272E+03  0.79083301956E+02 0.  0.
          6    2    1    2  501    0 -0.13596463549E+02 -0.74623576094E+02 -0.69103368206E+02  0.19860848452E+03  0.17004855982E+03 0.  0.
         24    2    5    5    0    0 -0.59206787059E+02 -0.80426541251E+02 -0.79221653429E+02  0.15129626928E+03  0.81489990511E+02 0.  0.
          5    1    5    5  501    0  0.45610323510E+02  0.58029651571E+01  0.10118285223E+02  0.47312215243E+02  0.47000000000E+01 0. -1.
        -13    1    6    6    0    0  0.29328798443E+01 -0.26443282040E+02  0.11335225180E+02  0.28919479233E+02  0.00000000000E+00 0.  1.
         14    1    6    6    0    0 -0.62139666903E+02 -0.53983259210E+02 -0.90556878609E+02  0.12237679004E+03  0.00000000000E+00 0. -1.
         -5    1    3    3    0  503  0.20268960343E+02  0.96586311671E+02 -0.11118834336E+03  0.14874368576E+03  0.47000000000E+01 0.  1.
         13    1    4    4    0    0 -0.22222777156E+02  0.87051140965E+01 -0.96199581794E-01  0.23867134104E+02  0.00000000000E+00 0. -1.
        -14    1    4    4    0    0  0.15550280363E+02 -0.30667849674E+02 -0.10001335615E+03  0.10575915862E+03  0.00000000000E+00 0.  1.
</event>
<event>
12    1  0.8297444E-002  0.1745662E+03  0.7818608E-02  0.1173800E+00
         21   -1    0    0  501  502  0.00000000000E+00  0.00000000000E+00  0.25804291542E+03  0.25804291542E+03  0.00000000000E+00 0. -1.
         21   -1    0    0  502  503 -0.00000000000E+00 -0.00000000000E+00 -0.12954699312E+03  0.12954699312E+03  0.00000000000E+00 0. -1.
         -6    2    1    2    0  503 -0.35250793738E+00 -0.95359512634E+01  0.29662159452E+01  0.17459144533E+03  0.17430523721E+03 0.  0.
        -24    2    3    3    0    0 -0.68386529807E+01 -0.45263483291E+02 -0.54578810520E+02  0.10638553142E+03  0.79015724025E+02 0.  0.
          6    2    1    2  501    0  0.35250793738E+00  0.95359512634E+01  0.12552970636E+03  0.21299846321E+03  0.17181262911E+03 0.  0.
         24    2    5    5    0    0 -0.64439200897E+02  0.22416778437E+02  0.83624878585E+02  0.13462764062E+03  0.80477069603E+02 0.  0.
          5    1    5    5  501    0  0.64791708835E+02 -0.12880827174E+02  0.41904827777E+02  0.78370822590E+02  0.47000000000E+01 0. -1.
        -13    1    6    6    0    0 -0.16248907770E+02  0.63170786965E+01 -0.15443423988E+02  0.23290165982E+02  0.00000000000E+00 0.  1.
         14    1    6    6    0    0 -0.48190293127E+02  0.16099699741E+02  0.99068302573E+02  0.11133747464E+03  0.00000000000E+00 0. -1.
         -5    1    3    3    0  503  0.64861450433E+01  0.35727532027E+02  0.57545026465E+02  0.68205913916E+02  0.47000000000E+01 0.  1.
         13    1    4    4    0    0  0.10566322473E+00  0.21297348935E+02 -0.22163511464E+01  0.21412623584E+02  0.00000000000E+00 0. -1.
        -14    1    4    4    0    0 -0.69443162054E+01 -0.66560832225E+02 -0.52362459373E+02  0.84972907834E+02  0.00000000000E+00 0.  1.
</event>
<event>
12    1  0.8297444E-002  0.2662248E+03  0.7818608E-02  0.1103507E+00
         21   -1    0    0  501  502  0.00000000000E+00  0.00000000000E+00  0.21191152078E+03  0.21191152078E+03  0.00000000000E+00 0. -1.
         21   -1    0    0  502  503 -0.00000000000E+00 -0.00000000000E+00 -0.34140269370E+03  0.34140269370E+03  0.00000000000E+00 0.  1.
         -6    2    1    2    0  503  0.13941901607E+03 -0.14800429280E+03 -0.24119857714E+02  0.26699484199E+03  0.17135210936E+03 0.  0.
        -24    2    3    3    0    0  0.47804612700E+02 -0.82756192389E+02  0.48180382732E+02  0.13320422841E+03  0.79297848727E+02 0.  0.
          6    2    1    2  501    0 -0.13941901607E+03  0.14800429280E+03 -0.10537131520E+03  0.28631937249E+03  0.17185091290E+03 0.  0.
         24    2    5    5    0    0 -0.71345345520E+02  0.16373502821E+03 -0.71554700692E+02  0.20855605160E+03  0.80475050049E+02 0.  0.
          5    1    5    5  501    0 -0.68073670546E+02 -0.15730735402E+02 -0.33816614512E+02  0.77763320885E+02  0.47000000000E+01 0. -1.
        -13    1    6    6    0    0 -0.57828102680E+02  0.76038244965E+02 -0.15643995037E+01  0.95542406829E+02  0.00000000000E+00 0.  1.
         14    1    6    6    0    0 -0.13517242840E+02  0.87696783241E+02 -0.69990301188E+02  0.11301364477E+03  0.00000000000E+00 0. -1.
         -5    1    3    3    0  503  0.91614403367E+02 -0.65248100414E+02 -0.72300240446E+02  0.13379061357E+03  0.47000000000E+01 0.  1.
         11    1    4    4    0    0  0.66869532844E+02 -0.73963903668E+02  0.51041860771E+02  0.11201546777E+03  0.00000000000E+00 0. -1.
        -12    1    4    4    0    0 -0.19064920144E+02 -0.87922887211E+01 -0.28614780392E+01  0.21188760644E+02  0.00000000000E+00 0.  1.
</event>
<event>
12    1  0.8297444E-002  0.2209303E+03  0.7818608E-02  0.1133291E+00
         21   -1    0    0  503  502  0.00000000000E+00  0.00000000000E+00  0.19929905936E+03  0.19929905936E+03  0.00000000000E+00 0. -1.
         21   -1    0    0  501  503 -0.00000000000E+00 -0.00000000000E+00 -0.27427324819E+03  0.27427324819E+03  0.00000000000E+00 0. -1.
          6    2    1    2  501    0 -0.12490163236E+03  0.58102795809E+02 -0.11570044121E+03  0.24891965503E+03  0.17204083793E+03 0.  0.
         24    2    3    3    0    0 -0.36222230342E+02 -0.13729852221E+01  0.21154111951E+01  0.89847124560E+02  0.82183305895E+02 0.  0.
         -6    2    1    2    0  502  0.12490163236E+03 -0.58102795809E+02  0.40726252381E+02  0.22465265253E+03  0.17272473479E+03 0.  0.
        -24    2    5    5    0    0  0.78712429147E+01  0.15505880730E+02  0.26051242894E+02  0.85541922461E+02  0.79601284159E+02 0.  0.
          5    1    3    3  501    0 -0.88679402020E+02  0.59475781031E+02 -0.11781585241E+03  0.15907253047E+03  0.47000000000E+01 0. -1.
        -13    1    4    4    0    0  0.17662826736E+01 -0.69282815382E+01 -0.35431962493E+02  0.36146158934E+02  0.00000000000E+00 0.  1.
         14    1    4    4    0    0 -0.37988513016E+02  0.55552963161E+01  0.37547373688E+02  0.53700965626E+02  0.00000000000E+00 0. -1.
         -5    1    5    5    0  502  0.11703038945E+03 -0.73608676539E+02  0.14675009486E+02  0.13911073007E+03  0.47000000000E+01 0.  1.
         13    1    6    6    0    0  0.17950820520E+02  0.27779355958E+02  0.48096705944E+02  0.58371377381E+02  0.00000000000E+00 0. -1.
        -14    1    6    6    0    0 -0.10079577605E+02 -0.12273475228E+02 -0.22045463049E+02  0.27170545080E+02  0.00000000000E+00 0.  1.
</event>
<event>
12    1  0.8297444E-002  0.2045261E+03  0.7818608E-02  0.1146208E+00
         21   -1    0    0  501  502  0.00000000000E+00  0.00000000000E+00  0.59256896823E+02  0.59256896823E+02  0.00000000000E+00 0. -1.
         21   -1    0    0  502  503 -0.00000000000E+00 -0.00000000000E+00 -0.88771404275E+03  0.88771404275E+03  0.00000000000E+00 0. -1.
         -6    2    1    2    0  503  0.68208336483E+02  0.84507541231E+02 -0.19858382840E+03  0.28507275785E+03  0.17331196922E+03 0.  0.
        -24    2    3    3    0    0  0.49566442944E+02  0.86206047481E+02 -0.22136649036E+03  0.25521401032E+03  0.79011094928E+02 0.  0.
          6    2    1    2  501    0 -0.68208336483E+02 -0.84507541231E+02 -0.62987331752E+03  0.66189818172E+03  0.17197355943E+03 0.  0.
         24    2    5    5    0    0  0.18814321174E+01  0.10424048310E+02 -0.17493156109E+03  0.19187831607E+03  0.78128333806E+02 0.  0.
          5    1    5    5  501    0 -0.70089768600E+02 -0.94931589541E+02 -0.45494175644E+03  0.47001986565E+03  0.47000000000E+01 0. -1.
        -13    1    6    6    0    0 -0.27680718161E+02  0.30624390358E+02 -0.11350299767E+03  0.12077667789E+03  0.00000000000E+00 0.  1.
         14    1    6    6    0    0  0.29562150278E+02 -0.20200342048E+02 -0.61428563416E+02  0.71101638176E+02  0.00000000000E+00 0. -1.
         -5    1    3    3    0  503  0.18641893539E+02 -0.16985062503E+01  0.22782661958E+02  0.29858747531E+02  0.47000000000E+01 0.  1.
         13    1    4    4    0    0  0.24448556436E+02  0.32267197001E+02 -0.19832839097E+02  0.45080432792E+02  0.00000000000E+00 0. -1.
        -14    1    4    4    0    0  0.25117886508E+02  0.53938850480E+02 -0.20153365126E+03  0.21013357753E+03  0.00000000000E+00 0.  1.
</event>
<event>
12    1  0.8297444E-002  0.2090545E+03  0.7818608E-02  0.1142380E+00
         21   -1    0    0  501  502  0.00000000000E+00  0.00000000000E+00  0.42537972905E+03  0.42537972905E+03  0.00000000000E+00 0.  1.
         21   -1    0    0  502  503 -0.00000000000E+00 -0.00000000000E+00 -0.12137568748E+03  0.12137568748E+03  0.00000000000E+00 0.  1.
         -6    2    1    2    0  503 -0.63421797759E+02 -0.10257770257E+03  0.44344140849E+02  0.21339818616E+03  0.17037568351E+03 0.  0.
        -24    2    3    3    0    0 -0.58144437331E+02 -0.24745651454E+02 -0.34979801686E+02  0.10204264488E+03  0.72083229602E+02 0.  0.
          6    2    1    2  501    0  0.63421797759E+02  0.10257770257E+03  0.25965990072E+03  0.33335723038E+03  0.17076085474E+03 0.  0.
         24    2    5    5    0    0  0.93946831237E+02  0.59140092519E+02  0.24027767057E+03  0.27664422940E+03  0.80468087087E+02 0.  0.
          5    1    5    5  501    0 -0.30525033478E+02  0.43437610046E+02  0.19382230146E+02  0.56713000986E+02  0.47000000000E+01 0. -1.
        -11    1    6    6    0    0  0.22091687129E+02  0.35148785716E+02  0.25080532241E+02  0.48502709976E+02  0.00000000000E+00 0.  1.
         12    1    6    6    0    0  0.71855144108E+02  0.23991306803E+02  0.21519713833E+03  0.22814151942E+03  0.00000000000E+00 0. -1.
         -5    1    3    3    0  503 -0.52773604277E+01 -0.77832051111E+02  0.79323942535E+02  0.11135554127E+03  0.47000000000E+01 0.  1.
         11    1    4    4    0    0 -0.30540122136E+02 -0.28180783116E+02 -0.54151579483E+02  0.68258692909E+02  0.00000000000E+00 0. -1.
        -12    1    4    4    0    0 -0.27604315195E+02  0.34351316620E+01  0.19171777797E+02  0.33783951972E+02  0.00000000000E+00 0.  1.
</event>
<event>
12    1  0.8297444E-002  0.1778574E+03  0.7818608E-02  0.1170167E+00
         21   -1    0    0  503  502  0.00000000000E+00  0.00000000000E+00  0.29893976988E+02  0.29893976988E+02  0.00000000000E+00 0.  1.
         21   -1    0    0  501  503 -0.00000000000E+00 -0.00000000000E+00 -0.11661248519E+04  0.11661248519E+04  0.00000000000E+00 0.  1.
          6    2    1    2  501    0 -0.42107200702E+02  0.12922494891E+02 -0.37909471675E+03  0.41827309881E+03  0.17117118243E+03 0.  0.
         24    2    3    3    0    0 -0.72705604723E+02  0.50208642406E+02 -0.25282292719E+03  0.28302083833E+03  0.91511472984E+02 0.  0.
         -6    2    1    2    0  502  0.42107200702E+02 -0.12922494891E+02 -0.75713615821E+03  0.77774573012E+03  0.17231729871E+03 0.  0.
        -24    2    5    5    0    0  0.73044774351E+02  0.33833618742E+02 -0.38636765354E+03  0.40273287477E+03  0.80209425274E+02 0.  0.
          5    1    3    3  501    0  0.30598404021E+02 -0.37286147515E+02 -0.12627178956E+03  0.13525226048E+03  0.47000000000E+01 0. -1.
        -13    1    4    4    0    0 -0.84730576129E+02  0.60088359090E+02 -0.24385975088E+03  0.26506123732E+03  0.00000000000E+00 0.  1.
         14    1    4    4    0    0  0.12024971406E+02 -0.98797166840E+01 -0.89631763090E+01  0.17959601015E+02  0.00000000000E+00 0. -1.
         -5    1    5    5    0  502 -0.30937573648E+02 -0.46756113633E+02 -0.37076850467E+03  0.37501285535E+03  0.47000000000E+01 0.  1.
         13    1    6    6    0    0  0.57578521359E+01 -0.74885228690E+00 -0.21881776625E+03  0.21889478858E+03  0.00000000000E+00 0. -1.
        -14    1    6    6    0    0  0.67286922215E+02  0.34582471029E+02 -0.16754988729E+03  0.18383808619E+03  0.00000000000E+00 0.  1.
</event>
<event>
12    1  0.8297444E-002  0.2032774E+03  0.7818608E-02  0.1147733E+00
         21   -1    0    0  501  502  0.00000000000E+00  0.00000000000E+00  0.35918786081E+03  0.35918786081E+03  0.00000000000E+00 0. -1.
         21   -1    0    0  502  503 -0.00000000000E+00 -0.00000000000E+00 -0.11306924444E+03  0.11306924444E+03  0.00000000000E+00 0. -1.
         -6    2    1    2    0  503 -0.16632773031E+02 -0.10504213129E+03  0.12363543714E+03  0.23792311292E+03  0.17323737432E+03 0.  0.
        -24    2    3    3    0    0  0.57787358503E+02 -0.67266207671E+02  0.63078239296E+02  0.13470179442E+03  0.79382539953E+02 0.  0.
          6    2    1    2  501    0  0.16632773031E+02  0.10504213129E+03  0.12248317923E+03  0.23433399234E+03  0.16911473113E+03 0.  0.
         24    2    5    5    0    0  0.62910620518E+02  0.65144922472E+02  0.12854225825E+03  0.17275291669E+03  0.71546145757E+02 0.  0.
          5    1    5    5  501    0 -0.46277847487E+02  0.39897208816E+02 -0.60590790109E+01  0.61581075647E+02  0.47000000000E+01 0. -1.
        -13    1    6    6    0    0  0.69887443047E+02  0.24575236044E+02  0.78127283506E+02  0.10766647273E+03  0.00000000000E+00 0.  1.
         14    1    6    6    0    0 -0.69768225287E+01  0.40569686428E+02  0.50414974740E+02  0.65086443961E+02  0.00000000000E+00 0. -1.
         -5    1    3    3    0  503 -0.74420131534E+02 -0.37775923618E+02  0.60557197839E+02  0.10322131850E+03  0.47000000000E+01 0.  1.
         11    1    4    4    0    0  0.36452576940E+02 -0.60470589741E+02  0.79950470893E+02  0.10666564763E+03  0.00000000000E+00 0. -1.
        -12    1    4    4    0    0  0.21334781563E+02 -0.67956179295E+01 -0.16872231597E+02  0.28036146783E+02  0.00000000000E+00 0.  1.
</event>
<event>
12    1  0.8297444E-002  0.1979531E+03  0.7818608E-02  0.1151597E+00
         21   -1    0    0  501  502  0.00000000000E+00  0.00000000000E+00  0.83877737401E+03  0.83877737401E+03  0.00000000000E+00 0.  1.
         21   -1    0    0  502  503 -0.00000000000E+00 -0.00000000000E+00 -0.11930936808E+03  0.11930936808E+03  0.00000000000E+00 0.  1.
         -6    2    1    2    0  503  0.57664130216E+02  0.80713189088E+02 -0.14070627391E+02  0.19845250971E+03  0.17130570699E+03 0.  0.
        -24    2    3    3    0    0  0.79449450527E+01 -0.48159519165E+00  0.41958870000E+02  0.87881333781E+02  0.76806431824E+02 0.  0.
          6    2    1    2  501    0 -0.57664130216E+02 -0.80713189088E+02  0.73353863332E+03  0.75963423238E+03  0.17066185758E+03 0.  0.
         24    2    5    5    0    0 -0.39877158717E+02 -0.10351166279E+03  0.70779794390E+03  0.72063654207E+03  0.77680398088E+02 0.  0.
          5    1    5    5  501    0 -0.17786971498E+02  0.22798473707E+02  0.25740689418E+02  0.38997690318E+02  0.47000000000E+01 0. -1.
        -11    1    6    6    0    0 -0.46537794479E+02 -0.10589102924E+03  0.52014494862E+03  0.53285030164E+03  0.00000000000E+00 0.  1.
         12    1    6    6    0    0  0.66606357619E+01  0.23793664408E+01  0.18765299528E+03  0.18778624042E+03  0.00000000000E+00 0. -1.
         -5    1    3    3    0  503  0.49719185163E+02  0.81194784279E+02 -0.56029497391E+02  0.11057117592E+03  0.47000000000E+01 0.  1.
         11    1    4    4    0    0  0.31857389607E+02  0.98992639067E+01  0.50434819415E+02  0.60469494027E+02  0.00000000000E+00 0. -1.
        -12    1    4    4    0    0 -0.23912444555E+02 -0.10380859098E+02 -0.84759494150E+01  0.27411839754E+02  0.00000000000E+00 0.  1.
</event>
<event>
12    1  0.8297444E-002  0.2818442E+03  0.7818608E-02  0.1094726E+00
         21   -1    0    0  503  502  0.00000000000E+00  0.00000000000E+00  0.35167468827E+03  0.35167468827E+03  0.00000000000E+00 0. -1.
         21   -1    0    0  501  503 -0.00000000000E+00 -0.00000000000E+00 -0.33622269425E+03  0.33622269425E+03  0.00000000000E+00 0.  1.
          6    2    1    2  501    0 -0.22319283513E+03  0.17553317278E+02 -0.18952377366E+03  0.33964012335E+03  0.17121037354E+03 0.  0.
         24    2    3    3    0    0 -0.10182849938E+03 -0.54619279871E+02 -0.83847516152E+02  0.16320955012E+03  0.79086296311E+02 0.  0.
         -6    2    1    2    0  502  0.22319283513E+03 -0.17553317278E+02  0.20497576768E+03  0.34825725917E+03  0.17071875299E+03 0.  0.
        -24    2    5    5    0    0  0.14469532110E+03  0.34855627780E+02  0.18683543217E+03  0.25202982543E+03  0.80373524592E+02 0.  0.
          5    1    3    3  501    0 -0.12136433575E+03  0.72172597149E+02 -0.10567625751E+03  0.17643057324E+03  0.47000000000E+01 0. -1.
        -11    1    4    4    0    0 -0.93737456372E+01 -0.69026183643E+01 -0.53614646693E+02  0.54863864132E+02  0.00000000000E+00 0.  1.
         12    1    4    4    0    0 -0.92454753747E+02 -0.47716661507E+02 -0.30232869459E+02  0.10834568599E+03  0.00000000000E+00 0. -1.
         -5    1    5    5    0  502  0.78497514033E+02 -0.52408945057E+02  0.18140335510E+02  0.96227433738E+02  0.47000000000E+01 0.  1.
         13    1    6    6    0    0  0.85522577987E+02 -0.38696914429E+01  0.14895756363E+03  0.17180640739E+03  0.00000000000E+00 0. -1.
        -14    1    6    6    0    0  0.59172743114E+02  0.38725319223E+02  0.37877868534E+02  0.80223418035E+02  0.00000000000E+00 0.  1.
</event>
<event>
12    1  0.8297444E-002  0.2117044E+03  0.7818608E-02  0.1140344E+00
         21   -1    0    0  501  502  0.00000000000E+00  0.00000000000E+00  0.37883405777E+03  0.37883405777E+03  0.00000000000E+00 0. -1.
         21   -1    0    0  502  503 -0.00000000000E+00 -0.00000000000E+00 -0.12871032432E+03  0.12871032432E+03  0.00000000000E+00 0. -1.
         -6    2    1    2    0  503  0.10924716548E+03  0.53430377030E+02  0.51570023267E+02  0.21729909923E+03  0.17253893147E+03 0.  0.
        -24    2    3    3    0    0  0.90529736829E+02 -0.18512903683E+02  0.62819712696E+02  0.14196767626E+03  0.87579357992E+02 0.  0.
          6    2    1    2  501    0 -0.10924716548E+03 -0.53430377030E+02  0.19855371019E+03  0.29024528286E+03  0.17328877643E+03 0.  0.
         24    2    5    5    0    0 -0.43293909827E+02  0.19300657366E+02  0.39868468563E+02  0.10358320528E+03  0.83024741058E+02 0.  0.
          5    1    5    5  501    0 -0.65953255653E+02 -0.72731034396E+02  0.15868524163E+03  0.18666207758E+03  0.47000000000E+01 0. -1.
        -13    1    6    6    0    0  0.88964751138E+01  0.36245022730E+01  0.47585662004E+02  0.48545643621E+02  0.00000000000E+00 0.  1.
         14    1    6    6    0    0 -0.52190384941E+02  0.15676155093E+02 -0.77171934416E+01  0.55037561659E+02  0.00000000000E+00 0. -1.
         -5    1    3    3    0  503  0.18717428650E+02  0.71943280713E+02 -0.11249689430E+02  0.75331422974E+02  0.47000000000E+01 0.  1.
         11    1    4    4    0    0  0.27062950948E+02  0.27266660600E+02 -0.45795658036E+01  0.38689100755E+02  0.00000000000E+00 0. -1.
        -12    1    4    4    0    0  0.63466785881E+02 -0.45779564283E+02  0.67399278500E+02  0.10327857551E+03  0.00000000000E+00 0.  1.
</event>
<event>
12    1  0.8297444E-002  0.2008317E+03  0.7818608E-02  0.1149383E+00
         21   -1    0    0  503  502  0.00000000000E+00  0.00000000000E+00  0.18031787619E+04  0.18031787619E+04  0.00000000000E+00 0. -1.
         21   -1    0    0  501  503 -0.00000000000E+00 -0.00000000000E+00 -0.25895227156E+02  0.25895227156E+02  0.00000000000E+00 0. -1.
          6    2    1    2  501    0  0.77418575018E+02  0.66611078623E+02  0.54565131578E+03  0.58143677703E+03  0.17292395935E+03 0.  0.
         24    2    3    3    0    0  0.20544082184E+02  0.99333035003E+02  0.34752143988E+03  0.37267142529E+03  0.88451845048E+02 0.  0.
         -6    2    1    2    0  502 -0.77418575018E+02 -0.66611078623E+02  0.12316322190E+04  0.12476372121E+04  0.17102636783E+03 0.  0.
        -24    2    5    5    0    0 -0.91301420880E+02 -0.10335888584E+03  0.99840046372E+03  0.10110737398E+04  0.80297027294E+02 0.  0.
          5    1    3    3  501    0  0.56874492834E+02 -0.32721956380E+02  0.19812987589E+03  0.20876535174E+03  0.47000000000E+01 0. -1.
        -11    1    4    4    0    0  0.21976402784E+02 -0.80458764220E+01  0.34061417422E+02  0.41326487433E+02  0.00000000000E+00 0.  1.
         12    1    4    4    0    0 -0.14323206008E+01  0.10737891143E+03  0.31346002246E+03  0.33134493786E+03  0.00000000000E+00 0. -1.
         -5    1    5    5    0  502  0.13882845863E+02  0.36747807218E+02  0.23323175530E+03  0.23656347229E+03  0.47000000000E+01 0.  1.
         11    1    6    6    0    0  0.23367797826E+01 -0.18222754500E+02  0.36290028128E+02  0.40675489706E+02  0.00000000000E+00 0. -1.
        -12    1    6    6    0    0 -0.93638200663E+02 -0.85136131341E+02  0.96211043559E+03  0.97039825008E+03  0.00000000000E+00 0.  1.
</event>
<event>
12    1  0.8297444E-002  0.2222348E+03  0.7818608E-02  0.1134489E+00
         21   -1    0    0  501  502  0.00000000000E+00  0.00000000000E+00  0.33610795813E+03  0.33610795813E+03  0.00000000000E+00 0. -1.
         21   -1    0    0  502  503 -0.00000000000E+00 -0.00000000000E+00 -0.15719453719E+03  0.15719453719E+03  0.00000000000E+00 0. -1.
         -6    2    1    2    0  503  0.64521493912E+02 -0.12362241232E+03  0.37475100660E+01  0.21033356684E+03  0.15741868219E+03 0.  0.
        -24    2    3    3    0    0  0.72069737944E+02 -0.14687509704E+03 -0.86673728566E+01  0.18251482041E+03  0.80437522707E+02 0.  0.
          6    2    1    2  501    0 -0.64521493912E+02  0.12362241232E+03  0.17516591088E+03  0.28296892848E+03  0.17303986289E+03 0.  0.
         24    2    5    5    0    0 -0.31193507258E+02  0.80572842407E+02  0.98483644351E+01  0.10885402009E+03  0.65476633837E+02 0.  0.
          5    1    5    5  501    0 -0.33327986654E+02  0.43049569911E+02  0.16531754644E+03  0.17411490840E+03  0.47000000000E+01 0. -1.
        -13    1    6    6    0    0 -0.47293697750E+02  0.78573650687E+02  0.11990494967E+02  0.92489374518E+02  0.00000000000E+00 0.  1.
         14    1    6    6    0    0  0.16100190492E+02  0.19991917202E+01 -0.21421305321E+01  0.16364645570E+02  0.00000000000E+00 0. -1.
         -5    1    3    3    0  503 -0.75482440319E+01  0.23252684723E+02  0.12414882923E+02  0.27818746427E+02  0.47000000000E+01 0.  1.
         13    1    4    4    0    0  0.75783052857E+02 -0.89594015315E+02 -0.30262480887E+02  0.12118571050E+03  0.00000000000E+00 0. -1.
        -14    1    4    4    0    0 -0.37133149125E+01 -0.57281081726E+02  0.21595108031E+02  0.61329109908E+02  0.00000000000E+00 0.  1.
</event>
<event>
12    1  0.8297444E-002  0.2433085E+03  0.7818608E-02  0.1117738E+00
         21   -1    0    0  503  502  0.00000000000E+00  0.00000000000E+00  0.10103640353E+04  0.10103640353E+04  0.00000000000E+00 0. -1.
         21   -1    0    0  501  503 -0.00000000000E+00 -0.00000000000E+00 -0.68061358197E+03  0.68061358197E+03  0.00000000000E+00 0.  1.
          6    2    1    2  501    0 -0.13538336147E+03  0.10598801247E+03 -0.64350233989E+03  0.68796386076E+03  0.17215370722E+03 0.  0.
         24    2    3    3    0    0 -0.15348530424E+03  0.99815042835E+02 -0.63652370922E+03  0.66706943154E+03  0.79362539662E+02 0.  0.
         -6    2    1    2    0  502  0.13538336147E+03 -0.10598801247E+03  0.97325279322E+03  0.10030137565E+04  0.17103649584E+03 0.  0.
        -24    2    5    5    0    0  0.54002431835E+02 -0.10780414464E+03  0.38631408901E+03  0.41043862497E+03  0.68434591017E+02 0.  0.
          5    1    3    3  501    0  0.18101942770E+02  0.61729696395E+01 -0.69786306690E+01  0.20894429216E+02  0.47000000000E+01 0. -1.
        -13    1    4    4    0    0 -0.10129668753E+03  0.19170787474E+02 -0.35041553330E+03  0.36526645613E+03  0.00000000000E+00 0.  1.
         14    1    4    4    0    0 -0.52188616706E+02  0.80644255361E+02 -0.28610817593E+03  0.30180297541E+03  0.00000000000E+00 0. -1.
         -5    1    5    5    0  502  0.81380929630E+02  0.18161321610E+01  0.58693870421E+03  0.59257513156E+03  0.47000000000E+01 0.  1.
         13    1    6    6    0    0 -0.80846272385E+01 -0.24800827198E+02  0.15198585526E+03  0.15420811401E+03  0.00000000000E+00 0. -1.
        -14    1    6    6    0    0  0.62087059074E+02 -0.83003317438E+02  0.23432823375E+03  0.25623051095E+03  0.00000000000E+00 0.  1.
</event>
<event>
12    1  0.8297444E-002  0.1891532E+03  0.7818608E-02  0.1159303E+00
         21   -1    0    0  501  502  0.00000000000E+00  0.00000000000E+00  0.27881432148E+03  0.27881432148E+03  0.00000000000E+00 0.  1.
         21   -1    0    0  502  503 -0.00000000000E+00 -0.00000000000E+00 -0.34818649609E+03  0.34818649609E+03  0.00000000000E+00 0. -1.
         -6    2    1    2    0  503  0.23640634811E+02  0.75723843245E+02 -0.28394431183E+03  0.34117930218E+03  0.17171477504E+03 0.  0.
        -24    2    3    3    0    0  0.40336381892E+02  0.18434575496E+02 -0.26175987077E+03  0.27734320271E+03  0.80213246212E+02 0.  0.
          6    2    1    2  501    0 -0.23640634811E+02 -0.75723843245E+02  0.21457213722E+03  0.28582151540E+03  0.17134688950E+03 0.  0.
         24    2    5    5    0    0  0.40108537421E+02 -0.82489298513E+02  0.16006545463E+03  0.20154342339E+03  0.81151849040E+02 0.  0.
          5    1    5    5  501    0 -0.63749172232E+02  0.67654552679E+01  0.54506682586E+02  0.84278092004E+02  0.47000000000E+01 0. -1.
        -11    1    6    6    0    0  0.59172774843E+01  0.10790102643E+02  0.57301559840E+02  0.58608098826E+02  0.00000000000E+00 0.  1.
         12    1    6    6    0    0  0.34191259936E+02 -0.93279401156E+02  0.10276389479E+03  0.14293532457E+03  0.00000000000E+00 0. -1.
         -5    1    3    3    0  503 -0.16695747081E+02  0.57289267749E+02 -0.22184441055E+02  0.63836099463E+02  0.47000000000E+01 0.  1.
         11    1    4    4    0    0  0.18707172315E+02  0.44001501229E+02 -0.85781273949E+02  0.98206503689E+02  0.00000000000E+00 0. -1.
        -12    1    4    4    0    0  0.21629209576E+02 -0.25566925733E+02 -0.17597859682E+03  0.17913669903E+03  0.00000000000E+00 0.  1.
</event>
<event>
12    1  0.8297444E-002  0.2116665E+03  0.7818608E-02  0.1140567E+00
         21   -1    0    0  501  502  0.00000000000E+00  0.00000000000E+00  0.22670295534E+03  0.22670295534E+03  0.00000000000E+00 0.  1.
         21   -1    0    0  502  503 -0.00000000000E+00 -0.00000000000E+00 -0.22206733922E+03  0.22206733922E+03  0.00000000000E+00 0.  1.
         -6    2    1    2    0  503 -0.17574812264E+02  0.12266640944E+03 -0.74344579771E+02  0.22434313745E+03  0.17160071313E+03 0.  0.
        -24    2    3    3    0    0 -0.30200317056E+02  0.96891046969E+01 -0.69448197966E+02  0.11046013032E+03  0.79827628605E+02 0.  0.
          6    2    1    2  501    0  0.17574812264E+02 -0.12266640944E+03  0.78980195888E+02  0.22442715711E+03  0.16962828619E+03 0.  0.
         24    2    5    5    0    0 -0.11129577040E+02 -0.14924089813E+03  0.66835354603E+02  0.18319934388E+03  0.81843275930E+02 0.  0.
          5    1    5    5  501    0  0.28704389303E+02  0.26574488683E+02  0.12144841285E+02  0.41227813232E+02  0.47000000000E+01 0. -1.
        -11    1    6    6    0    0  0.89902610900E+01 -0.71211901895E+02  0.73007740057E+02  0.10238207790E+03  0.00000000000E+00 0.  1.
         12    1    6    6    0    0 -0.20119838130E+02 -0.78028996231E+02 -0.61723854539E+01  0.80817265986E+02  0.00000000000E+00 0. -1.
         -5    1    3    3    0  503  0.12625504792E+02  0.11297730475E+03 -0.48963818050E+01  0.11388300713E+03  0.47000000000E+01 0.  1.
         11    1    4    4    0    0  0.69847790129E+01 -0.29812230765E+02 -0.17096178598E+02  0.35069011444E+02  0.00000000000E+00 0. -1.
        -12    1    4    4    0    0 -0.37185096069E+02  0.39501335461E+02 -0.52352019369E+02  0.75391118873E+02  0.00000000000E+00 0.  1.
</event>
<event>
12    1  0.8297444E-002  0.1927920E+03  0.7818608E-02  0.1155994E+00
         21   -1    0    0  501  502  0.00000000000E+00  0.00000000000E+00  0.80029568292E+02  0.80029568292E+02  0.00000000000E+00 0.  1.
         21   -1    0    0  502  503 -0.00000000000E+00 -0.00000000000E+00 -0.51297055730E+03  0.51297055730E+03  0.00000000000E+00 0. -1.
         -6    2    1    2    0  503  0.72742928346E+02  0.45141260932E+02 -0.30788553102E+03  0.36320104453E+03  0.17260426262E+03 0.  0.
        -24    2    3    3    0    0  0.75713444684E+02  0.91593302714E+02 -0.25603851405E+03  0.29336681710E+03  0.79915642324E+02 0.  0.
          6    2    1    2  501    0 -0.72742928346E+02 -0.45141260932E+02 -0.12505545799E+03  0.22979908106E+03  0.17274108666E+03 0.  0.
         24    2    5    5    0    0 -0.89948016962E+02 -0.15362939950E+02 -0.24525525823E+02  0.12344532825E+03  0.79439171516E+02 0.  0.
          5    1    5    5  501    0  0.17205088616E+02 -0.29778320983E+02 -0.10052993216E+03  0.10635375281E+03  0.47000000000E+01 0. -1.
        -11    1    6    6    0    0  0.63507651582E+01  0.13736975474E+02 -0.16707057092E+02  0.22542459271E+02  0.00000000000E+00 0.  1.
         12    1    6    6    0    0 -0.96298782120E+02 -0.29099915424E+02 -0.78184687305E+01  0.10090286898E+03  0.00000000000E+00 0. -1.
         -5    1    3    3    0  503 -0.29705163378E+01 -0.46452041782E+02 -0.51847016966E+02  0.69834227434E+02  0.47000000000E+01 0.  1.
         11    1    4    4    0    0 -0.15495480384E+02  0.18196623448E+02 -0.26429124081E+02  0.35633209467E+02  0.00000000000E+00 0. -1.
        -12    1    4    4    0    0  0.91208925068E+02  0.73396679266E+02 -0.22960938997E+03  0.25773360763E+03  0.00000000000E+00 0.  1.
</event>
<event>
12    1  0.8297444E-002  0.2584791E+03  0.7818608E-02  0.1108595E+00
         21   -1    0    0  503  502  0.00000000000E+00  0.00000000000E+00  0.46605986149E+02  0.46605986149E+02  0.00000000000E+00 0.  1.
         21   -1    0    0  501  503 -0.00000000000E+00 -0.00000000000E+00 -0.22244321978E+04  0.22244321978E+04  0.00000000000E+00 0. -1.
          6    2    1    2  501    0  0.52414896263E+02  0.18497215342E+03 -0.17695065408E+04  0.17877821267E+04  0.16747989630E+03 0.  0.
         24    2    3    3    0    0  0.19253434207E+02  0.12834759151E+03 -0.15779598747E+04  0.15852525267E+04  0.78894919048E+02 0.  0.
         -6    2    1    2    0  502 -0.52414896263E+02 -0.18497215342E+03 -0.40831967080E+03  0.48325605722E+03  0.17276991746E+03 0.  0.
        -24    2    5    5    0    0 -0.16368986650E+02 -0.16392204274E+02 -0.96305543207E+02  0.12675442654E+03  0.79090321218E+02 0.  0.
          5    1    3    3  501    0  0.33161462056E+02  0.56624561917E+02 -0.19154666609E+03  0.20252959998E+03  0.47000000000E+01 0. -1.
        -11    1    4    4    0    0 -0.18583776764E+02  0.19651724928E+02 -0.13336144799E+03  0.13607653310E+03  0.00000000000E+00 0.  1.
         12    1    4    4    0    0  0.37837210971E+02  0.10869586658E+03 -0.14445984267E+04  0.14491759936E+04  0.00000000000E+00 0. -1.
         -5    1    5    5    0  502 -0.36045909613E+02 -0.16857994915E+03 -0.31201412760E+03  0.35650163068E+03  0.47000000000E+01 0.  1.
         11    1    6    6    0    0  0.19638852668E+02  0.17468120153E+02 -0.59756915366E+02  0.65281763839E+02  0.00000000000E+00 0. -1.
        -12    1    6    6    0    0 -0.36007839318E+02 -0.33860324427E+02 -0.36548627841E+02  0.61472662702E+02  0.00000000000E+00 0.  1.
</event>
<event>
12    1  0.8297444E-002  0.1788720E+03  0.7818608E-02  0.1169427E+00
         21   -1    0    0  501  502  0.00000000000E+00  0.00000000000E+00  0.74370779963E+03  0.74370779963E+03  0.00000000000E+00 0.  1.
         21   -1    0    0  502  503 -0.00000000000E+00 -0.00000000000E+00 -0.14386305522E+03  0.14386305522E+03  0.00000000000E+00 0.  1.
         -6    2    1    2    0  503  0.42396135164E+02 -0.25766921427E+02 -0.72039783131E+02  0.19283389133E+03  0.17185404498E+03 0.  0.
        -24    2    3    3    0    0  0.42676212141E+00  0.45997642336E+02 -0.22982904387E+02  0.96188931616E+02  0.81290414225E+02 0.  0.
          6    2    1    2  501    0 -0.42396135164E+02  0.25766921427E+02  0.67188452754E+03  0.69473696352E+03  0.16961504534E+03 0.  0.
         24    2    5    5    0    0 -0.48920678508E+02  0.18718030982E+02  0.67628644803E+03  0.68317307894E+03  0.81354154970E+02 0.  0.
          5    1    5    5  501    0  0.65245433434E+01  0.70488904456E+01 -0.44019204907E+01  0.11563884570E+02  0.47000000000E+01 0. -1.
        -11    1    6    6    0    0 -0.36896729028E+02 -0.26523467333E+02  0.23056714433E+03  0.23500227867E+03  0.00000000000E+00 0.  1.
         12    1    6    6    0    0 -0.12023949480E+02  0.45241498315E+02  0.44571930370E+03  0.44817080028E+03  0.00000000000E+00 0. -1.
         -5    1    3    3    0  503  0.41969373043E+02 -0.71764563764E+02 -0.49056878744E+02  0.96644959713E+02  0.47000000000E+01 0.  1.
         11    1    4    4    0    0 -0.38707679981E+02  0.11803463890E+02 -0.32415881974E+01  0.40596972096E+02  0.00000000000E+00 0. -1.
        -12    1    4    4    0    0  0.39134442103E+02  0.34194178447E+02 -0.19741316190E+02  0.55591959520E+02  0.00000000000E+00 0.  1.
</event>
<event>
12    1  0.8297444E-002  0.2063443E+03  0.7818608E-02  0.1144499E+00
         21   -1    0    0  501  502  0.00000000000E+00  0.00000000000E+00  0.30682263691E+02  0.30682263691E+02  0.00000000000E+00 0. -1.
         21   -1    0    0  502  503 -0.00000000000E+00 -0.00000000000E+00 -0.14445419501E+04  0.14445419501E+04  0.00000000000E+00 0. -1.
         -6    2    1    2    0  503 -0.11197908007E+02 -0.11320767129E+03 -0.85348190313E+03  0.87807137680E+03  0.17215287915E+03 0.  0.
        -24    2    3    3    0    0 -0.69420422126E+02 -0.42618711537E+02 -0.52038798258E+03  0.53260602066E+03  0.78930166869E+02 0.  0.
          6    2    1    2  501    0  0.11197908007E+02  0.11320767129E+03 -0.56037778327E+03  0.59715283698E+03  0.17212460821E+03 0.  0.
         24    2    5    5    0    0 -0.85188219299E+01  0.12346476112E+03 -0.55452295954E+03  0.57369380264E+03  0.79452809642E+02 0.  0.
          5    1    5    5  501    0  0.19716729937E+02 -0.10257089836E+02 -0.58548237223E+01  0.23459034339E+02  0.47000000000E+01 0. -1.
        -11    1    6    6    0    0 -0.42965381638E+00  0.13095883828E+01 -0.17310531792E+03  0.17311080474E+03  0.00000000000E+00 0.  1.
         12    1    6    6    0    0 -0.80891681135E+01  0.12215517274E+03 -0.38141764162E+03  0.40058299790E+03  0.00000000000E+00 0. -1.
         -5    1    3    3    0  503  0.58222514119E+02 -0.70588959748E+02 -0.33309392055E+03  0.34546535615E+03  0.47000000000E+01 0.  1.
         11    1    4    4    0    0 -0.53408061619E+02 -0.37750191857E+02 -0.17515002318E+03  0.18696263972E+03  0.00000000000E+00 0. -1.
        -12    1    4    4    0    0 -0.16012360507E+02 -0.48685196797E+01 -0.34523795940E+03  0.34564338093E+03  0.00000000000E+00 0.  1.
</event>
<event>
12    1  0.8297444E-002  0.1837883E+03  0.7818608E-02  0.1164428E+00
         21   -1    0    0  501  502  0.00000000000E+00  0.00000000000E+00  0.91634232210E+02  0.91634232210E+02  0.00000000000E+00 0. -1.
         21   -1    0    0  502  503 -0.00000000000E+00 -0.00000000000E+00 -0.36705720671E+03  0.36705720671E+03  0.00000000000E+00 0. -1.
         -6    2    1    2    0  503 -0.58102970778E+02  0.20909659144E+02 -0.12974858818E+03  0.22497298804E+03  0.17310395765E+03 0.  0.
        -24    2    3    3    0    0 -0.10115090441E+02  0.73682906421E+02 -0.76278615830E+02  0.13570384314E+03  0.84057242743E+02 0.  0.
          6    2    1    2  501    0  0.58102970778E+02 -0.20909659144E+02 -0.14567438633E+03  0.23371845089E+03  0.17201778511E+03 0.  0.
         24    2    5    5    0    0 -0.18489078827E+02 -0.47031167931E+02 -0.47001374990E+02  0.10601908342E+03  0.80480680951E+02 0.  0.
          5    1    5    5  501    0  0.76592049605E+02  0.26121508787E+02 -0.98673011336E+02  0.12769936746E+03  0.47000000000E+01 0. -1.
        -11    1    6    6    0    0 -0.31154350480E+02 -0.57677090141E+02 -0.56844617012E+02  0.86767221715E+02  0.00000000000E+00 0.  1.
         12    1    6    6    0    0  0.12665271654E+02  0.10645922210E+02  0.98432420220E+01  0.19251861709E+02  0.00000000000E+00 0. -1.
         -5    1    3    3    0  503 -0.47987880337E+02 -0.52773247277E+02 -0.53469972347E+02  0.89269144895E+02  0.47000000000E+01 0.  1.
         11    1    4    4    0    0 -0.76160800299E+00  0.24344729412E+02  0.17044199722E+02  0.29727943774E+02  0.00000000000E+00 0. -1.
        -12    1    4    4    0    0 -0.93534824377E+01  0.49338177009E+02 -0.93322815552E+02  0.10597589937E+03  0.00000000000E+00 0.  1.
</event>
<event>
12    1  0.8297444E-002  0.1880547E+03  0.7818608E-02  0.1160399E+00
         21   -1    0    0  501  502  0.00000000000E+00  0.00000000000E+00  0.91704027011E+03  0.91704027011E+03  0.00000000000E+00 0.  1.
         21   -1    0    0  502  503 -0.00000000000E+00 -0.00000000000E+00 -0.54116715153E+02  0.54116715153E+02  0.00000000000E+00 0.  1.
         -6    2    1    2    0  503 -0.67906993378E+02 -0.28193007292E+02  0.16925850594E+03  0.25245274693E+03  0.17227229083E+03 0.  0.
        -24    2    3    3    0    0 -0.21415696986E+02  0.24837416423E+02  0.15889170882E+03  0.18101587296E+03  0.80278526387E+02 0.  0.
          6    2    1    2  501    0  0.67906993378E+02  0.28193007292E+02  0.69366504901E+03  0.71870423833E+03  0.17308488255E+03 0.  0.
         24    2    5    5    0    0  0.75397640480E+02  0.58053451465E+02  0.30511485249E+03  0.32890800805E+03  0.77655631710E+02 0.  0.
          5    1    5    5  501    0 -0.74906471020E+01 -0.29860444172E+02  0.38855019652E+03  0.38979623028E+03  0.47000000000E+01 0. -1.
        -13    1    6    6    0    0  0.22196980665E+02  0.54588683559E+02  0.22563605031E+03  0.23320432569E+03  0.00000000000E+00 0.  1.
         14    1    6    6    0    0  0.53200659816E+02  0.34647679055E+01  0.79478802179E+02  0.95703682360E+02  0.00000000000E+00 0. -1.
         -5    1    3    3    0  503 -0.46491296392E+02 -0.53030423715E+02  0.10366797117E+02  0.71436873966E+02  0.47000000000E+01 0.  1.
         13    1    4    4    0    0 -0.45225862855E+01  0.21721809466E+02  0.10186455181E+01  0.22210997994E+02  0.00000000000E+00 0. -1.
        -14    1    4    4    0    0 -0.16893110701E+02  0.31156069572E+01  0.15787306331E+03  0.15880487497E+03  0.00000000000E+00 0.  1.
</event>
<event>
12    1  0.8297444E-002  0.3813449E+03  0.7818608E-02  0.1050444E+00
         21   -1    0    0  503  502  0.00000000000E+00  0.00000000000E+00  0.21990763229E+04  0.21990763229E+04  0.00000000000E+00 0. -1.
         21   -1    0    0  501  503 -0.00000000000E+00 -0.00000000000E+00 -0.12774138148E+03  0.12774138148E+03  0.00000000000E+00 0. -1.
          6    2    1    2  501    0 -0.33679627547E+03 -0.46999113881E+02  0.22755973615E+03  0.44401901245E+03  0.17242042230E+03 0.  0.
         24    2    3    3    0    0 -0.10335604117E+03  0.64561319533E+01  0.12960331206E+03  0.18523462862E+03  0.82405680964E+02 0.  0.
         -6    2    1    2    0  502  0.33679627547E+03  0.46999113881E+02  0.18437752053E+04  0.18827986920E+04  0.17257826881E+03 0.  0.
        -24    2    5    5    0    0  0.78270855865E+02  0.47871215012E+02  0.50385672251E+03  0.51815962478E+03  0.78738934625E+02 0.  0.
          5    1    3    3  501    0 -0.23344023429E+03 -0.53455245835E+02  0.97956424087E+02  0.25878438383E+03  0.47000000000E+01 0. -1.
        -13    1    4    4    0    0 -0.88791306034E+02 -0.20785118473E+02  0.12386934238E+03  0.15381655034E+03  0.00000000000E+00 0.  1.
         14    1    4    4    0    0 -0.14564735139E+02  0.27241250427E+02  0.57339696862E+01  0.31418078281E+02  0.00000000000E+00 0. -1.
         -5    1    5    5    0  502  0.25852541960E+03 -0.87210113036E+00  0.13399184828E+04  0.13646390672E+04  0.47000000000E+01 0.  1.
         11    1    6    6    0    0  0.57676377613E+02  0.29892399884E+02  0.47081049120E+03  0.47527112128E+03  0.00000000000E+00 0. -1.
        -12    1    6    6    0    0  0.20594478252E+02  0.17978815128E+02  0.33046231314E+02  0.42888503494E+02  0.00000000000E+00 0.  1.
</event>
<event>
12    1  0.8297444E-002  0.2113417E+03  0.7818608E-02  0.1140557E+00
         21   -1    0    0  501  502  0.00000000000E+00  0.00000000000E+00  0.57674027990E+03  0.57674027990E+03  0.00000000000E+00 0. -1.
         21   -1    0    0  502  503 -0.00000000000E+00 -0.00000000000E+00 -0.10627491759E+03  0.10627491759E+03  0.00000000000E+00 0. -1.
         -6    2    1    2    0  503  0.10751832228E+03  0.59937431134E+02  0.57178177913E+02  0.21893987866E+03  0.17179243628E+03 0.  0.
        -24    2    3    3    0    0  0.82236857236E+02  0.96529278765E+02  0.40160882772E+01  0.14946748442E+03  0.79016438711E+02 0.  0.
          6    2    1    2  501    0 -0.10751832228E+03 -0.59937431134E+02  0.41328718440E+03  0.46407531883E+03  0.17148445841E+03 0.  0.
         24    2    5    5    0    0 -0.88745379416E+02 -0.73124179894E+01  0.13200945965E+03  0.17726342257E+03  0.77888444067E+02 0.  0.
          5    1    5    5  501    0 -0.18772942867E+02 -0.52625013145E+02  0.28127772476E+03  0.28681189626E+03  0.47000000000E+01 0. -1.
        -11    1    6    6    0    0 -0.89367420245E+02  0.16836844650E+02  0.11917329112E+03  0.14990759973E+03  0.00000000000E+00 0.  1.
         12    1    6    6    0    0  0.62204082898E+00 -0.24149262639E+02  0.12836168523E+02  0.27355822838E+02  0.00000000000E+00 0. -1.
         -5    1    3    3    0  503  0.25281465047E+02 -0.36591847630E+02  0.53162089635E+02  0.69472394247E+02  0.47000000000E+01 0.  1.
         13    1    4    4    0    0  0.57469994618E+02  0.97861613265E+02  0.25881889417E+02  0.11640261093E+03  0.00000000000E+00 0. -1.
        -14    1    4    4    0    0  0.24766862617E+02 -0.13323345006E+01 -0.21865801139E+02  0.33064873485E+02  0.00000000000E+00 0.  1.
</event>
<event>
12    1  0.8297444E-002  0.2088532E+03  0.7818608E-02  0.1142516E+00
         21   -1    0    0  503  502  0.00000000000E+00  0.00000000000E+00  0.89733401276E+03  0.89733401276E+03  0.00000000000E+00 0.  1.
         21   -1    0    0  501  503 -0.00000000000E+00 -0.00000000000E+00 -0.56380539244E+02  0.56380539244E+02  0.00000000000E+00 0. -1.
          6    2    1    2  501    0 -0.58213237065E+02 -0.10385439435E+03  0.24310191052E+03  0.32049682531E+03  0.17159592052E+03 0.  0.
         24    2    3    3    0    0  0.32385242527E+02 -0.31537881599E+02  0.11058288817E+03  0.14436862256E+03  0.81057276746E+02 0.  0.
         -6    2    1    2    0  502  0.58213237065E+02  0.10385439435E+03  0.59785156299E+03  0.63321772669E+03  0.17135834333E+03 0.  0.
        -24    2    5    5    0    0  0.22449067312E+02  0.10865266309E+03  0.26179175048E+03  0.29519348672E+03  0.79340482498E+02 0.  0.
          5    1    3    3  501    0 -0.90598479592E+02 -0.72316512750E+02  0.13251902235E+03  0.17612820275E+03  0.47000000000E+01 0. -1.
        -13    1    4    4    0    0  0.24029831037E+02 -0.48011174408E+02  0.11360425345E+03  0.12565202764E+03  0.00000000000E+00 0.  1.
         14    1    4    4    0    0  0.83554114901E+01  0.16473292809E+02 -0.30213652809E+01  0.18716594917E+02  0.00000000000E+00 0. -1.
         -5    1    5    5    0  502  0.35764169753E+02 -0.47982687438E+01  0.33605981251E+03  0.33802423997E+03  0.47000000000E+01 0.  1.
         13    1    6    6    0    0  0.34667532193E+02  0.30617041182E+02  0.45290437597E+02  0.64733799030E+02  0.00000000000E+00 0. -1.
        -14    1    6    6    0    0 -0.12218464881E+02  0.78035621911E+02  0.21650131288E+03  0.23045968769E+03  0.00000000000E+00 0.  1.
</event>
<event>
12    1  0.8297444E-002  0.2323087E+03  0.7818608E-02  0.1125450E+00
         21   -1    0    0  503  502  0.00000000000E+00  0.00000000000E+00  0.25210566537E+03  0.25210566537E+03  0.00000000000E+00 0. -1.
         21   -1    0    0  501  503 -0.00000000000E+00 -0.00000000000E+00 -0.21876759313E+03  0.21876759313E+03  0.00000000000E+00 0. -1.
          6    2    1    2  501    0 -0.13634222726E+03 -0.75789922495E+02  0.58510235905E+02  0.23720474694E+03  0.16884705795E+03 0.  0.
         24    2    3    3    0    0 -0.10446234342E+03 -0.11512879423E+03  0.25136652892E+02  0.17637909556E+03  0.79439999861E+02 0.  0.
         -6    2    1    2    0  502  0.13634222726E+03  0.75789922495E+02 -0.25172163664E+02  0.23366851157E+03  0.17214534612E+03 0.  0.
        -24    2    5    5    0    0  0.13466534376E+03  0.38913918058E+00 -0.12104443640E+02  0.15698118948E+03  0.79760078077E+02 0.  0.
          5    1    3    3  501    0 -0.31879883834E+02  0.39338871732E+02  0.33373583012E+02  0.60825651378E+02  0.47000000000E+01 0. -1.
        -11    1    4    4    0    0 -0.96889842115E+02 -0.11515105752E+03  0.43387032318E+02  0.15662005659E+03  0.00000000000E+00 0.  1.
         12    1    4    4    0    0 -0.75725013069E+01  0.22263293939E-01 -0.18250379426E+02  0.19759038967E+02  0.00000000000E+00 0. -1.
         -5    1    5    5    0  502  0.16768834927E+01  0.75400783314E+02 -0.13067720025E+02  0.76687322089E+02  0.47000000000E+01 0.  1.
         13    1    6    6    0    0  0.91551935338E+02 -0.86800092844E+01  0.29304504435E+02  0.96518668689E+02  0.00000000000E+00 0. -1.
        -14    1    6    6    0    0  0.43113408425E+02  0.90691484650E+01 -0.41408948074E+02  0.60462520792E+02  0.00000000000E+00 0.  1.
</event>
<event>
12    1  0.8297444E-002  0.1809908E+03  0.7818608E-02  0.1168202E+00
         21   -1    0    0  503  502  0.00000000000E+00  0.00000000000E+00  0.87546109861E+03  0.87546109861E+03  0.00000000000E+00 0. -1.
         21   -1    0    0  501  503 -0.00000000000E+00 -0.00000000000E+00 -0.65666324834E+02  0.65666324834E+02  0.00000000000E+00 0. -1.
          6    2    1    2  501    0 -0.19504700776E+02 -0.31786875856E+02  0.93609247433E+02  0.20376548539E+03  0.17710686887E+03 0.  0.
         24    2    3    3    0    0 -0.62374867337E+02  0.29524402586E+02  0.56974571452E+02  0.12033219749E+03  0.80445146144E+02 0.  0.
         -6    2    1    2    0  502  0.19504700776E+02  0.31786875856E+02  0.71618552635E+03  0.73736193806E+03  0.17143535434E+03 0.  0.
        -24    2    5    5    0    0  0.31376005790E+02 -0.45429941834E+02  0.36534010973E+03  0.37789293914E+03  0.79254932491E+02 0.  0.
          5    1    3    3  501    0  0.42870166561E+02 -0.61311278442E+02  0.36634675981E+02  0.83433287898E+02  0.47000000000E+01 0. -1.
        -13    1    4    4    0    0 -0.51969912229E+02  0.87642263177E+01  0.74487259542E+02  0.91247111046E+02  0.00000000000E+00 0.  1.
         14    1    4    4    0    0 -0.10404955108E+02  0.20760176269E+02 -0.17512688091E+02  0.29085086448E+02  0.00000000000E+00 0. -1.
         -5    1    5    5    0  502 -0.11871305014E+02  0.77216817689E+02  0.35084541662E+03  0.35946899891E+03  0.47000000000E+01 0.  1.
         11    1    6    6    0    0  0.50350918890E+02 -0.54789065156E+02  0.25945505439E+03  0.26991476793E+03  0.00000000000E+00 0. -1.
        -12    1    6    6    0    0 -0.18974913100E+02  0.93591233220E+01  0.10588505534E+03  0.10797817122E+03  0.00000000000E+00 0.  1.
</event>
<event>
12    1  0.8297444E-002  0.3084114E+03  0.7818608E-02  0.1081123E+00
         21   -1    0    0  503  502  0.00000000000E+00  0.00000000000E+00  0.68277769877E+02  0.68277769877E+02  0.00000000000E+00 0.  1.
         21   -1    0    0  501  503 -0.00000000000E+00 -0.00000000000E+00 -0.13998295940E+04  0.13998295940E+04  0.00000000000E+00 0. -1.
          6    2    1    2  501    0 -0.86626604068E+02 -0.24094358204E+03 -0.61316262561E+03  0.68635702668E+03  0.17192900969E+03 0.  0.
         24    2    3    3    0    0 -0.63964908293E+01 -0.41332259942E+02 -0.22251389569E+03  0.24036367341E+03  0.80703103475E+02 0.  0.
         -6    2    1    2    0  502  0.86626604068E+02  0.24094358204E+03 -0.71838919847E+03  0.78175033715E+03  0.17173401207E+03 0.  0.
        -24    2    5    5    0    0  0.85361507744E+02  0.16853911974E+03 -0.65153057686E+03  0.68307829494E+03  0.80073981754E+02 0.  0.
          5    1    3    3  501    0 -0.80230113239E+02 -0.19961132210E+03 -0.39064872991E+03  0.44599335327E+03  0.47000000000E+01 0. -1.
        -13    1    4    4    0    0 -0.24855206069E+02 -0.59077017635E+02 -0.14011422289E+03  0.15407748290E+03  0.00000000000E+00 0.  1.
         14    1    4    4    0    0  0.18458715240E+02  0.17744757693E+02 -0.82399672803E+02  0.86286190505E+02  0.00000000000E+00 0. -1.
         -5    1    5    5    0  502  0.12650963240E+01  0.72404462300E+02 -0.66858621606E+02  0.98672042204E+02  0.47000000000E+01 0.  1.
         13    1    6    6    0    0 -0.14222908171E+00  0.66951283265E+02 -0.29815435186E+03  0.30557897849E+03  0.00000000000E+00 0. -1.
        -14    1    6    6    0    0  0.85503736826E+02  0.10158783647E+03 -0.35337622500E+03  0.37749931645E+03  0.00000000000E+00 0.  1.
</event>
<event>
12    1  0.8297444E-002  0.1787930E+03  0.7818608E-02  0.1171757E+00
         21   -1    0    0  503  502  0.00000000000E+00  0.00000000000E+00  0.61201467327E+02  0.61201467327E+02  0.00000000000E+00 0. -1.
         21   -1    0    0  501  503 -0.00000000000E+00 -0.00000000000E+00 -0.49301072870E+03  0.49301072870E+03  0.00000000000E+00 0. -1.
          6    2    1    2  501    0  0.37317280376E+02 -0.38770719304E+02 -0.24190480765E+03  0.30080703635E+03  0.17050275383E+03 0.  0.
         24    2    3    3    0    0 -0.17243693807E+02 -0.77686608199E+02 -0.15362280018E+03  0.18986944509E+03  0.78216925110E+02 0.  0.
         -6    2    1    2    0  502 -0.37317280376E+02  0.38770719304E+02 -0.18990445373E+03  0.25340515968E+03  0.15891735373E+03 0.  0.
        -24    2    5    5    0    0 -0.96816168910E+01  0.80145720773E+02 -0.13378693077E+03  0.17825938783E+03  0.85792751694E+02 0.  0.
          5    1    3    3  501    0  0.54560974183E+02  0.38915888895E+02 -0.88282007466E+02  0.11093759126E+03  0.47000000000E+01 0. -1.
        -13    1    4    4    0    0 -0.38967765207E+02 -0.51550776673E+02 -0.13817154507E+03  0.15253637326E+03  0.00000000000E+00 0.  1.
         14    1    4    4    0    0  0.21724071400E+02 -0.26135831525E+02 -0.15451255115E+02  0.37333071831E+02  0.00000000000E+00 0. -1.
         -5    1    5    5    0  502 -0.27635663485E+02 -0.41375001470E+02 -0.56117522961E+02  0.75145771845E+02  0.47000000000E+01 0.  1.
         13    1    6    6    0    0 -0.38095171948E+02  0.80502695636E+02 -0.95559118300E+02  0.13062722236E+03  0.00000000000E+00 0. -1.
        -14    1    6    6    0    0  0.28413555057E+02 -0.35697486300E+00 -0.38227812465E+02  0.47632165476E+02  0.00000000000E+00 0.  1.
</event>
<event>
12    1  0.8297444E-002  0.1952625E+03  0.7818608E-02  0.1154824E+00
         21   -1    0    0  503  502  0.00000000000E+00  0.00000000000E+00  0.14841797950E+03  0.14841797950E+03  0.00000000000E+00 0. -1.
         21   -1    0    0  501  503 -0.00000000000E+00 -0.00000000000E+00 -0.36753911490E+03  0.36753911490E+03  0.00000000000E+00 0. -1.
          6    2    1    2  501    0  0.81138261533E+02  0.96945138323E+01 -0.25584260417E+03  0.32184296979E+03  0.17734164207E+03 0.  0.
         24    2    3    3    0    0  0.72617471303E+02 -0.22604696253E+02 -0.26493950123E+03  0.28690464735E+03  0.79605702876E+02 0.  0.
         -6    2    1    2    0  502 -0.81138261533E+02 -0.96945138323E+01  0.36721468766E+02  0.19411412461E+03  0.17220460511E+03 0.  0.
        -24    2    5    5    0    0 -0.77506143862E+02  0.38825335345E+02  0.67335838619E+02  0.13643659272E+03  0.81032213775E+02 0.  0.
          5    1    3    3  501    0  0.85207902302E+01  0.32299210085E+02  0.90968970616E+01  0.34938322433E+02  0.47000000000E+01 0. -1.
        -13    1    4    4    0    0  0.36455013908E+02  0.13487901971E+02 -0.38268827737E+02  0.54547178800E+02  0.00000000000E+00 0.  1.
         14    1    4    4    0    0  0.36162457395E+02 -0.36092598224E+02 -0.22667067349E+03  0.23235746855E+03  0.00000000000E+00 0. -1.
         -5    1    5    5    0  502 -0.36321176717E+01 -0.48519849178E+02 -0.30614369854E+02  0.57677531887E+02  0.47000000000E+01 0.  1.
         11    1    6    6    0    0 -0.21483102631E+02  0.36442942960E+02  0.68316963354E+02  0.80354335739E+02  0.00000000000E+00 0. -1.
        -12    1    6    6    0    0 -0.56023041231E+02  0.23823923857E+01 -0.98112473423E+00  0.56082256980E+02  0.00000000000E+00 0.  1.
</event>
<event>
12    1  0.8297444E-002  0.1764547E+03  0.7818608E-02  0.1171534E+00
         21   -1    0    0  501  502  0.00000000000E+00  0.00000000000E+00  0.27296981100E+03  0.27296981100E+03  0.00000000000E+00 0.  1.
         21   -1    0    0  502  503 -0.00000000000E+00 -0.00000000000E+00 -0.11678482825E+03  0.11678482825E+03  0.00000000000E+00 0.  1.
         -6    2    1    2    0  503 -0.15558670707E+02  0.32451778627E+02  0.11102570945E+03  0.20761290314E+03  0.17170095871E+03 0.  0.
        -24    2    3    3    0    0  0.18679780763E+02  0.47650346019E+01  0.13457372897E+03  0.15745887462E+03  0.79445383157E+02 0.  0.
          6    2    1    2  501    0  0.15558670707E+02 -0.32451778627E+02  0.45159273302E+02  0.18214173611E+03  0.17274565667E+03 0.  0.
         24    2    5    5    0    0 -0.31535814581E+02 -0.40181750741E+02  0.79000474213E+02  0.12344795541E+03  0.79932734692E+02 0.  0.
          5    1    5    5  501    0  0.47094485288E+02  0.77299721148E+01 -0.33841200911E+02  0.58693780697E+02  0.47000000000E+01 0. -1.
        -13    1    6    6    0    0 -0.34912335704E+02 -0.10140425659E+02  0.85160762621E+02  0.92596192725E+02  0.00000000000E+00 0.  1.
         14    1    6    6    0    0  0.33765211230E+01 -0.30041325082E+02 -0.61602884086E+01  0.30851762686E+02  0.00000000000E+00 0. -1.
         -5    1    3    3    0  503 -0.34238451470E+02  0.27686744025E+02 -0.23548019513E+02  0.50154028519E+02  0.47000000000E+01 0.  1.
         13    1    4    4    0    0 -0.19665694657E+02 -0.12887876568E+02  0.10048690818E+03  0.10320104469E+03  0.00000000000E+00 0. -1.
        -14    1    4    4    0    0  0.38345475420E+02  0.17652911170E+02  0.34086820787E+02  0.54257829935E+02  0.00000000000E+00 0.  1.
</event>
<event>
12    1  0.8297444E-002  0.1926022E+03  0.7818608E-02  0.1156277E+00
         21   -1    0    0  503  502  0.00000000000E+00  0.00000000000E+00  0.10400662092E+03  0.10400662092E+03  0.00000000000E+00 0.  1.
         21   -1    0    0  501  503 -0.00000000000E+00 -0.00000000000E+00 -0.38820137189E+03  0.38820137189E+03  0.00000000000E+00 0. -1.
          6    2    1    2  501    0  0.23549594752E+02  0.81988284503E+02 -0.70433311282E+02  0.20447623301E+03  0.17196806773E+03 0.  0.
         24    2    3    3    0    0  0.37005320687E+02  0.11553011145E+03 -0.25099959561E+02  0.14630997566E+03  0.77846005669E+02 0.  0.
         -6    2    1    2    0  502 -0.23549594752E+02 -0.81988284503E+02 -0.21376143969E+03  0.28773175980E+03  0.17268164434E+03 0.  0.
        -24    2    5    5    0    0 -0.48093854116E+02 -0.38989993436E+02 -0.21506932575E+03  0.23798164153E+03  0.80914822100E+02 0.  0.
          5    1    3    3  501    0 -0.13455725935E+02 -0.33541826943E+02 -0.45333351721E+02  0.58166257344E+02  0.47000000000E+01 0. -1.
        -11    1    4    4    0    0  0.48455982735E+02  0.32332538272E+02 -0.22007398823E+02  0.62271188337E+02  0.00000000000E+00 0.  1.
         12    1    4    4    0    0 -0.11450662048E+02  0.83197573174E+02 -0.30925607380E+01  0.84038787327E+02  0.00000000000E+00 0. -1.
         -5    1    5    5    0  502  0.24544259364E+02 -0.42998291068E+02  0.13078860540E+01  0.49750118275E+02  0.47000000000E+01 0.  1.
         13    1    6    6    0    0 -0.54546332551E+02 -0.58592706541E+02 -0.15475070185E+03  0.17423027113E+03  0.00000000000E+00 0. -1.
        -14    1    6    6    0    0  0.64524784353E+01  0.19602713105E+02 -0.60318623893E+02  0.63751370396E+02  0.00000000000E+00 0.  1.
</event>
<event>
12    1  0.8297444E-002  0.1793301E+03  0.7818608E-02  0.1168487E+00
         21   -1    0    0  503  502  0.00000000000E+00  0.00000000000E+00  0.19101008088E+03  0.19101008088E+03  0.00000000000E+00 0.  1.
         21   -1    0    0  501  503 -0.00000000000E+00 -0.00000000000E+00 -0.67694328048E+03  0.67694328048E+03  0.00000000000E+00 0.  1.
          6    2    1    2  501    0  0.41800472939E+02  0.25820823822E+02 -0.61914867265E+03  0.64455760864E+03  0.17232364181E+03 0.  0.
         24    2    3    3    0    0  0.78421348805E+02  0.51305000586E+02 -0.33617223640E+03  0.35804707604E+03  0.80023903317E+02 0.  0.
         -6    2    1    2    0  502 -0.41800472939E+02 -0.25820823822E+02  0.13321547305E+03  0.22339575273E+03  0.17246827417E+03 0.  0.
        -24    2    5    5    0    0 -0.75693789075E+02 -0.60212364504E+02  0.70368239841E+02  0.14400180037E+03  0.80185726833E+02 0.  0.
          5    1    3    3  501    0 -0.36620875867E+02 -0.25484176764E+02 -0.28297643625E+03  0.28651053260E+03  0.47000000000E+01 0. -1.
        -13    1    4    4    0    0  0.66683261750E+02  0.37299354847E+02 -0.33004421939E+03  0.33877291217E+03  0.00000000000E+00 0.  1.
         14    1    4    4    0    0  0.11738087055E+02  0.14005645740E+02 -0.61280170079E+01  0.19274163866E+02  0.00000000000E+00 0. -1.
         -5    1    5    5    0  502  0.33893316136E+02  0.34391540682E+02  0.62847233207E+02  0.79393952358E+02  0.47000000000E+01 0.  1.
         13    1    6    6    0    0  0.12867685551E+02 -0.28947784985E+02  0.19352159372E+02  0.37122199010E+02  0.00000000000E+00 0. -1.
        -14    1    6    6    0    0 -0.88561474626E+02 -0.31264579519E+02  0.51016080469E+02  0.10687960136E+03  0.00000000000E+00 0.  1.
</event>
<event>
12    1  0.8297444E-002  0.2893665E+03  0.7818608E-02  0.1090788E+00
         21   -1    0    0  501  502  0.00000000000E+00  0.00000000000E+00  0.61939733975E+03  0.61939733975E+03  0.00000000000E+00 0.  1.
         21   -1    0    0  502  503 -0.00000000000E+00 -0.00000000000E+00 -0.25390022478E+03  0.25390022478E+03  0.00000000000E+00 0. -1.
         -6    2    1    2    0  503 -0.20943415752E+03 -0.98755369034E+02 -0.11644436293E+03  0.31115827438E+03  0.17217692298E+03 0.  0.
        -24    2    3    3    0    0 -0.88909323603E+02 -0.10523990550E+03 -0.29682371246E+02  0.16243699815E+03  0.80773941776E+02 0.  0.
          6    2    1    2  501    0  0.20943415752E+03  0.98755369034E+02  0.48194147791E+03  0.56213929015E+03  0.17354453076E+03 0.  0.
         24    2    5    5    0    0  0.14652550973E+03  0.13337103861E+03  0.39659078410E+03  0.45050339324E+03  0.80071832413E+02 0.  0.
          5    1    5    5  501    0  0.62908647783E+02 -0.34615669573E+02  0.85350693806E+02  0.11163589691E+03  0.47000000000E+01 0. -1.
        -13    1    6    6    0    0  0.27497212741E+02  0.33669940788E+02  0.17239516310E+03  0.17779160239E+03  0.00000000000E+00 0.  1.
         14    1    6    6    0    0  0.11902829699E+03  0.99701097819E+02  0.22419562100E+03  0.27271179085E+03  0.00000000000E+00 0. -1.
         -5    1    3    3    0  503 -0.12052483391E+03  0.64845364689E+01 -0.86761991684E+02  0.14872127623E+03  0.47000000000E+01 0.  1.
         13    1    4    4    0    0  0.90223189223E+01 -0.42104001650E+02 -0.10848278211E+02  0.44405341276E+02  0.00000000000E+00 0. -1.
        -14    1    4    4    0    0 -0.97931642526E+02 -0.63135903853E+02 -0.18834093035E+02  0.11803165687E+03  0.00000000000E+00 0.  1.
</event>
<event>
12    1  0.8297444E-002  0.2277030E+03  0.7818608E-02  0.1128304E+00
         21   -1    0    0  503  502  0.00000000000E+00  0.00000000000E+00  0.21817079979E+03  0.21817079979E+03  0.00000000000E+00 0. -1.
         21   -1    0    0  501  503 -0.00000000000E+00 -0.00000000000E+00 -0.26359819266E+03  0.26359819266E+03  0.00000000000E+00 0.  1.
          6    2    1    2  501    0 -0.14346124578E+03 -0.45468505244E+02  0.53187402839E+02  0.23362881791E+03  0.17060190716E+03 0.  0.
         24    2    3    3    0    0 -0.10108461677E+03  0.32931276512E+02  0.56021152250E+02  0.14434038304E+03  0.79957538454E+02 0.  0.
         -6    2    1    2    0  502  0.14346124578E+03  0.45468505244E+02 -0.98614795711E+02  0.24814017454E+03  0.17088052633E+03 0.  0.
        -24    2    5    5    0    0  0.12475308915E+03  0.91593307496E+02 -0.94567163277E+02  0.19798077028E+03  0.79377388477E+02 0.  0.
          5    1    3    3  501    0 -0.42376629006E+02 -0.78399781755E+02 -0.28337494114E+01  0.89288434866E+02  0.47000000000E+01 0. -1.
        -11    1    4    4    0    0 -0.37192726637E+02  0.22010005159E+02 -0.17232709588E+02  0.46526395965E+02  0.00000000000E+00 0.  1.
         12    1    4    4    0    0 -0.63891890137E+02  0.10921271353E+02  0.73253861838E+02  0.97813987075E+02  0.00000000000E+00 0. -1.
         -5    1    5    5    0  502  0.18708156635E+02 -0.46124802252E+02 -0.40476324343E+01  0.50159404261E+02  0.47000000000E+01 0.  1.
         13    1    6    6    0    0  0.44833000495E+02  0.20284223959E+02  0.77984574061E+01  0.49822320429E+02  0.00000000000E+00 0. -1.
        -14    1    6    6    0    0  0.79920088651E+02  0.71309083537E+02 -0.10236562068E+03  0.14815844985E+03  0.00000000000E+00 0.  1.
</event>
<event>
12    1  0.8297444E-002  0.2201684E+03  0.7818608E-02  0.1134750E+00
         21   -1    0    0  503  502  0.00000000000E+00  0.00000000000E+00  0.35588070019E+02  0.35588070019E+02  0.00000000000E+00 0. -1.
         21   -1    0    0  501  503 -0.00000000000E+00 -0.00000000000E+00 -0.14634050348E+04  0.14634050348E+04  0.00000000000E+00 0. -1.
          6    2    1    2  501    0  0.46906480064E+02 -0.12215677130E+03 -0.94825517881E+03  0.97347932101E+03  0.17706385750E+03 0.  0.
         24    2    3    3    0    0  0.95754418627E+01 -0.80746923449E+02 -0.28561013145E+03  0.30847636559E+03  0.83503091014E+02 0.  0.
         -6    2    1    2    0  502 -0.46906480064E+02  0.12215677130E+03 -0.47956178598E+03  0.52551378383E+03  0.17047796272E+03 0.  0.
        -24    2    5    5    0    0 -0.21652946521E+02  0.20194929715E+02 -0.88963042588E+02  0.12100985747E+03  0.76500178952E+02 0.  0.
          5    1    3    3  501    0  0.37331038201E+02 -0.41409847852E+02 -0.66264504736E+03  0.66500295541E+03  0.47000000000E+01 0. -1.
        -11    1    4    4    0    0  0.33046098506E+01  0.12691071445E+02 -0.76903682184E+01  0.15202812372E+02  0.00000000000E+00 0.  1.
         12    1    4    4    0    0  0.62708320121E+01 -0.93437994894E+02 -0.27791976323E+03  0.29327355322E+03  0.00000000000E+00 0. -1.
         -5    1    5    5    0  502 -0.25253533542E+02  0.10196184159E+03 -0.39059874339E+03  0.40450392635E+03  0.47000000000E+01 0.  1.
         11    1    6    6    0    0 -0.18346566267E+02  0.48027789169E+02 -0.42306263929E+02  0.66581416280E+02  0.00000000000E+00 0. -1.
        -12    1    6    6    0    0 -0.33063802546E+01 -0.27832859454E+02 -0.46656778659E+02  0.54428441192E+02  0.00000000000E+00 0.  1.
</event>
<event>
12    1  0.8297444E-002  0.2603948E+03  0.7818608E-02  0.1106974E+00
         21   -1    0    0  503  502  0.00000000000E+00  0.00000000000E+00  0.65725457051E+03  0.65725457051E+03  0.00000000000E+00 0.  1.
         21   -1    0    0  501  503 -0.00000000000E+00 -0.00000000000E+00 -0.17399268402E+03  0.17399268402E+03  0.00000000000E+00 0.  1.
          6    2    1    2  501    0  0.41863424297E+02 -0.19054577600E+03 -0.23758375428E+02  0.26147636669E+03  0.17246794162E+03 0.  0.
         24    2    3    3    0    0  0.26787399888E+02 -0.21509336663E+03 -0.19227062526E+02  0.23193836550E+03  0.80268326859E+02 0.  0.
         -6    2    1    2    0  502 -0.41863424297E+02  0.19054577600E+03  0.50702026192E+03  0.56977088785E+03  0.17178207006E+03 0.  0.
        -24    2    5    5    0    0 -0.14158823526E+02  0.20876560365E+03  0.41008753054E+03  0.46721577371E+03  0.79594264516E+02 0.  0.
          5    1    3    3  501    0  0.15076024409E+02  0.24547590628E+02 -0.45313129021E+01  0.29538001189E+02  0.47000000000E+01 0. -1.
        -11    1    4    4    0    0 -0.20656883549E+02 -0.50459751210E+02 -0.26137765872E+02  0.60465495408E+02  0.00000000000E+00 0.  1.
         12    1    4    4    0    0  0.47444283437E+02 -0.16463361542E+03  0.69107033461E+01  0.17147287009E+03  0.00000000000E+00 0. -1.
         -5    1    5    5    0  502 -0.27704600772E+02 -0.18219827652E+02  0.96932731381E+02  0.10255511414E+03  0.47000000000E+01 0.  1.
         13    1    6    6    0    0  0.25904684577E+02  0.14054156969E+03  0.29168210706E+03  0.32480984756E+03  0.00000000000E+00 0. -1.
        -14    1    6    6    0    0 -0.40063508103E+02  0.68224033966E+02  0.11840542347E+03  0.14240592614E+03  0.00000000000E+00 0.  1.
</event>
<event>
12    1  0.8297444E-002  0.2813814E+03  0.7818608E-02  0.1094963E+00
         21   -1    0    0  501  502  0.00000000000E+00  0.00000000000E+00  0.19166962073E+03  0.19166962073E+03  0.00000000000E+00 0.  1.
         21   -1    0    0  502  503 -0.00000000000E+00 -0.00000000000E+00 -0.52529294295E+03  0.52529294295E+03  0.00000000000E+00 0. -1.
         -6    2    1    2    0  503 -0.79674661482E+02  0.20881730606E+03 -0.33265730409E+03  0.43557948560E+03  0.17063378129E+03 0.  0.
        -24    2    3    3    0    0 -0.35245443468E+02  0.80603786781E+02 -0.24995451310E+03  0.27659991591E+03  0.79316096317E+02 0.  0.
          6    2    1    2  501    0  0.79674661482E+02 -0.20881730606E+03 -0.96601812706E+00  0.28138307808E+03  0.17094672985E+03 0.  0.
         24    2    5    5    0    0  0.60789180211E+02 -0.22813536376E+03 -0.16506421871E+02  0.24986414878E+03  0.80115930091E+02 0.  0.
          5    1    5    5  501    0  0.18885481271E+02  0.19318057693E+02  0.15540403744E+02  0.31518929303E+02  0.47000000000E+01 0. -1.
        -11    1    6    6    0    0  0.15787339384E+02 -0.18515680333E+03 -0.14224098032E+01  0.18583407964E+03  0.00000000000E+00 0.  1.
         12    1    6    6    0    0  0.45001840827E+02 -0.42978560423E+02 -0.15084012068E+02  0.64030069139E+02  0.00000000000E+00 0. -1.
         -5    1    3    3    0  503 -0.44429218014E+02  0.12821351928E+03 -0.82702790991E+02  0.15897956969E+03  0.47000000000E+01 0.  1.
         13    1    4    4    0    0 -0.20738105552E+01 -0.10809412087E+02 -0.80301415493E+02  0.81052214097E+02  0.00000000000E+00 0. -1.
        -14    1    4    4    0    0 -0.33171632913E+02  0.91413198868E+02 -0.16965309760E+03  0.19554770181E+03  0.00000000000E+00 0.  1.
</event>
<event>
12    1  0.8297444E-002  0.2201353E+03  0.7818608E-02  0.1133951E+00
         21   -1    0    0  501  502  0.00000000000E+00  0.00000000000E+00  0.83235350244E+02  0.83235350244E+02  0.00000000000E+00 0.  1.
         21   -1    0    0  502  503 -0.00000000000E+00 -0.00000000000E+00 -0.95985034726E+03  0.95985034726E+03  0.00000000000E+00 0.  1.
         -6    2    1    2    0  503  0.10824947499E+03  0.83389572076E+02 -0.76593527789E+03  0.79669260625E+03  0.17143654621E+03 0.  0.
        -24    2    3    3    0    0  0.11373548664E+03  0.10258269910E+03 -0.75295727545E+03  0.77242346956E+03  0.78958131870E+02 0.  0.
          6    2    1    2  501    0 -0.10824947499E+03 -0.83389572076E+02 -0.11067971913E+03  0.24639309125E+03  0.17259138340E+03 0.  0.
         24    2    5    5    0    0 -0.60348896311E+02 -0.24015642171E+01  0.21582661149E+01  0.99396411806E+02  0.78912811195E+02 0.  0.
          5    1    5    5  501    0 -0.47900578678E+02 -0.80988007859E+02 -0.11283798524E+03  0.14699667945E+03  0.47000000000E+01 0. -1.
        -11    1    6    6    0    0 -0.64615723816E+02 -0.29809025143E+02  0.59149045000E+01  0.71405572888E+02  0.00000000000E+00 0.  1.
         12    1    6    6    0    0  0.42668275044E+01  0.27407460926E+02 -0.37566383852E+01  0.27990838918E+02  0.00000000000E+00 0. -1.
         -5    1    3    3    0  503 -0.54860116485E+01 -0.19193127023E+02 -0.12978002436E+02  0.24269136696E+02  0.47000000000E+01 0.  1.
         13    1    4    4    0    0 -0.10736464754E+02  0.19012479242E+02 -0.76745419060E+02  0.79791010703E+02  0.00000000000E+00 0. -1.
        -14    1    4    4    0    0  0.12447195139E+03  0.83570219857E+02 -0.67621185639E+03  0.69263245885E+03  0.00000000000E+00 0.  1.
</event>
<event>
12    1  0.8297444E-002  0.2356961E+03  0.7818608E-02  0.1123001E+00
         21   -1    0    0  501  502  0.00000000000E+00  0.00000000000E+00  0.27529414753E+03  0.27529414753E+03  0.00000000000E+00 0. -1.
         21   -1    0    0  502  503 -0.00000000000E+00 -0.00000000000E+00 -0.31129056868E+03  0.31129056868E+03  0.00000000000E+00 0.  1.
         -6    2    1    2    0  503  0.12490569835E+03  0.10135567958E+03 -0.19320372623E+03  0.30476277535E+03  0.17227379995E+03 0.  0.
        -24    2    3    3    0    0  0.37929384651E+02  0.70059138890E+01 -0.20403937524E+02  0.89475491922E+02  0.78114159656E+02 0.  0.
          6    2    1    2  501    0 -0.12490569835E+03 -0.10135567958E+03  0.15720730507E+03  0.28182194086E+03  0.16980889942E+03 0.  0.
         24    2    5    5    0    0 -0.12981120160E+03 -0.38389980460E+02  0.15139700095E+03  0.21822482724E+03  0.79851641589E+02 0.  0.
          5    1    5    5  501    0  0.49055032576E+01 -0.62965699117E+02  0.58103041235E+01  0.63597113626E+02  0.47000000000E+01 0. -1.
        -13    1    6    6    0    0 -0.47051695486E+02 -0.51804575678E+02  0.46867639230E+02  0.84226787403E+02  0.00000000000E+00 0.  1.
         14    1    6    6    0    0 -0.82759506118E+02  0.13414595218E+02  0.10452936172E+03  0.13399803983E+03  0.00000000000E+00 0. -1.
         -5    1    3    3    0  503  0.86976313695E+02  0.94349765688E+02 -0.17279978870E+03  0.21528728343E+03  0.47000000000E+01 0.  1.
         13    1    4    4    0    0  0.60976215961E+02  0.78819218311E+01 -0.48857750336E+01  0.61677341077E+02  0.00000000000E+00 0. -1.
        -14    1    4    4    0    0 -0.23046831310E+02 -0.87600794216E+00 -0.15518162490E+02  0.27798150845E+02  0.00000000000E+00 0.  1.
</event>
<event>
12    1  0.8297444E-002  0.1951956E+03  0.7818608E-02  0.1153885E+00
         21   -1    0    0  501  502  0.00000000000E+00  0.00000000000E+00  0.55716790123E+03  0.55716790123E+03  0.00000000000E+00 0.  1.
         21   -1    0    0  502  503 -0.00000000000E+00 -0.00000000000E+00 -0.75802228370E+02  0.75802228370E+02  0.00000000000E+00 0.  1.
         -6    2    1    2    0  503 -0.47997577053E+02  0.76238606583E+02  0.34006779426E+03  0.39210639797E+03  0.17316243849E+03 0.  0.
        -24    2    3    3    0    0 -0.48302898346E+02  0.11977043510E+03  0.27904414912E+03  0.31699921735E+03  0.77102137021E+02 0.  0.
          6    2    1    2  501    0  0.47997577053E+02 -0.76238606583E+02  0.14129787860E+03  0.24086373162E+03  0.17301489583E+03 0.  0.
         24    2    5    5    0    0  0.12676870217E+02 -0.73829201555E+02  0.16475543788E+03  0.19813546638E+03  0.80634078932E+02 0.  0.
          5    1    5    5  501    0  0.35320706836E+02 -0.24094050275E+01 -0.23457559277E+02  0.42728265249E+02  0.47000000000E+01 0. -1.
        -13    1    6    6    0    0 -0.22422983058E+02 -0.54858192262E+02  0.53126389851E+02  0.79590355735E+02  0.00000000000E+00 0.  1.
         14    1    6    6    0    0  0.35099853276E+02 -0.18971009293E+02  0.11162904803E+03  0.11854511064E+03  0.00000000000E+00 0. -1.
         -5    1    3    3    0  503  0.30532129265E+00 -0.43531828513E+02  0.61023645139E+02  0.75107180621E+02  0.47000000000E+01 0.  1.
         11    1    4    4    0    0 -0.79788476216E+01 -0.99973277225E+01  0.12875620258E+02  0.18149109289E+02  0.00000000000E+00 0. -1.
        -12    1    4    4    0    0 -0.40324050724E+02  0.12976776282E+03  0.26616852886E+03  0.29885010807E+03  0.00000000000E+00 0.  1.
</event>
<event>
12    1  0.8297444E-002  0.2221964E+03  0.7818608E-02  0.1132275E+00
         21   -1    0    0  501  502  0.00000000000E+00  0.00000000000E+00  0.28929155596E+04  0.28929155596E+04  0.00000000000E+00 0. -1.
         21   -1    0    0  502  503 -0.00000000000E+00 -0.00000000000E+00 -0.17260065952E+02  0.17260065952E+02  0.00000000000E+00 0. -1.
         -6    2    1    2    0  503 -0.25075070516E+02 -0.13845727909E+03  0.12808721569E+04  0.13000018095E+04  0.17196524452E+03 0.  0.
        -24    2    3    3    0    0  0.33848354244E+01 -0.82604814089E+02  0.11384175235E+04  0.11442941454E+04  0.81114863568E+02 0.  0.
          6    2    1    2  501    0  0.25075070516E+02  0.13845727909E+03  0.15947833368E+04  0.16101738160E+04  0.17183320152E+03 0.  0.
         24    2    5    5    0    0 -0.12021944622E+01  0.66824347181E+02  0.13341303843E+04  0.13385420373E+04  0.85580164264E+02 0.  0.
          5    1    5    5  501    0  0.26277264979E+02  0.71632931906E+02  0.26065295246E+03  0.27163177873E+03  0.47000000000E+01 0. -1.
        -11    1    6    6    0    0 -0.11376098841E+02 -0.15963204180E+02  0.12393293053E+03  0.12547354614E+03  0.00000000000E+00 0.  1.
         12    1    6    6    0    0  0.10173904379E+02  0.82787551361E+02  0.12101974538E+04  0.12130684911E+04  0.00000000000E+00 0. -1.
         -5    1    3    3    0  503 -0.28459905941E+02 -0.55852464999E+02  0.14245463338E+03  0.15570766412E+03  0.47000000000E+01 0.  1.
         11    1    4    4    0    0 -0.17511186852E+02 -0.85135679791E+02  0.70061297853E+03  0.70598390302E+03  0.00000000000E+00 0. -1.
        -12    1    4    4    0    0  0.20896022276E+02  0.25308657024E+01  0.43780454495E+03  0.43831024241E+03  0.00000000000E+00 0.  1.
</event>
<event>
12    1  0.8297444E-002  0.1767202E+03  0.7818608E-02  0.1172710E+00
         21   -1    0    0  503  502  0.00000000000E+00  0.00000000000E+00  0.96180064760E+02  0.96180064760E+02  0.00000000000E+00 0.  1.
         21   -1    0    0  501  503 -0.00000000000E+00 -0.00000000000E+00 -0.67507307215E+03  0.67507307215E+03  0.00000000000E+00 0.  1.
          6    2    1    2  501    0 -0.40573128376E+02 -0.43482841847E+01 -0.56943869214E+03  0.59428017796E+03  0.16505580717E+03 0.  0.
         24    2    3    3    0    0 -0.13141664734E+02  0.53420189782E+02 -0.43190991619E+03  0.44253718471E+03  0.79161632915E+02 0.  0.
         -6    2    1    2    0  502  0.40573128376E+02  0.43482841847E+01 -0.94543152446E+01  0.17697295895E+03  0.17194463586E+03 0.  0.
        -24    2    5    5    0    0  0.23592778127E+02 -0.61312815082E+02  0.15179591478E+02  0.10466368146E+03  0.80051144561E+02 0.  0.
          5    1    3    3  501    0 -0.27431463641E+02 -0.57768473967E+02 -0.13752877595E+03  0.15174299324E+03  0.47000000000E+01 0. -1.
        -11    1    4    4    0    0 -0.22511844361E+02  0.41208943544E+01 -0.30803275981E+03  0.30888176706E+03  0.00000000000E+00 0.  1.
         12    1    4    4    0    0  0.93701796265E+01  0.49299295428E+02 -0.12387715638E+03  0.13365541765E+03  0.00000000000E+00 0. -1.
         -5    1    5    5    0  502  0.16980350249E+02  0.65661099267E+02 -0.24633906722E+02  0.72309277495E+02  0.47000000000E+01 0.  1.
         11    1    6    6    0    0  0.33511154008E+02 -0.18508028885E+02 -0.24507305721E+02  0.45454951434E+02  0.00000000000E+00 0. -1.
        -12    1    6    6    0    0 -0.99183758811E+01 -0.42804786197E+02  0.39686897199E+02  0.59208730022E+02  0.00000000000E+00 0.  1.
</event>
<event>
12    1  0.8297444E-002  0.2202580E+03  0.7818608E-02  0.1133962E+00
         21   -1    0    0  503  502  0.00000000000E+00  0.00000000000E+00  0.10221084771E+04  0.10221084771E+04  0.00000000000E+00 0. -1.
         21   -1    0    0  501  503 -0.00000000000E+00 -0.00000000000E+00 -0.89688064300E+02  0.89688064300E+02  0.00000000000E+00 0. -1.
          6    2    1    2  501    0  0.10014258864E+03 -0.90474163082E+02  0.84190910514E+02  0.23580012459E+03  0.17406744986E+03 0.  0.
         24    2    3    3    0    0  0.10543297350E+03 -0.17632389201E+02  0.94568852667E+02  0.16188325320E+03  0.76393106496E+02 0.  0.
         -6    2    1    2    0  502 -0.10014258864E+03  0.90474163082E+02  0.84822950227E+03  0.87599641679E+03  0.17222752817E+03 0.  0.
        -24    2    5    5    0    0 -0.99386221285E+02  0.39260124233E+01  0.59365637274E+03  0.60707129199E+03  0.78832925218E+02 0.  0.
          5    1    3    3  501    0 -0.52903848590E+01 -0.72841773881E+02 -0.10377942153E+02  0.73916871399E+02  0.47000000000E+01 0. -1.
        -13    1    4    4    0    0  0.32893527756E+02  0.22335334479E+02  0.60352329063E+02  0.72272089757E+02  0.00000000000E+00 0.  1.
         14    1    4    4    0    0  0.72539445746E+02 -0.39967723680E+02  0.34216523603E+02  0.89611163438E+02  0.00000000000E+00 0. -1.
         -5    1    5    5    0  502 -0.75636735712E+00  0.86548150659E+02  0.25457312952E+03  0.26892512480E+03  0.47000000000E+01 0.  1.
         13    1    6    6    0    0 -0.50513136286E+02  0.57320137299E+01  0.48804637486E+03  0.49068696429E+03  0.00000000000E+00 0. -1.
        -14    1    6    6    0    0 -0.48873085000E+02 -0.18060013066E+01  0.10560999789E+03  0.11638432769E+03  0.00000000000E+00 0.  1.
</event>
<event>
12    1  0.8297444E-002  0.1929405E+03  0.7818608E-02  0.1157006E+00
         21   -1    0    0  501  502  0.00000000000E+00  0.00000000000E+00  0.11596959302E+04  0.11596959302E+04  0.00000000000E+00 0. -1.
         21   -1    0    0  502  503 -0.00000000000E+00 -0.00000000000E+00 -0.41841258140E+02  0.41841258140E+02  0.00000000000E+00 0. -1.
         -6    2    1    2    0  503 -0.61975083140E+02  0.42210012566E+02  0.26223225735E+03  0.32556380936E+03  0.17777356687E+03 0.  0.
        -24    2    3    3    0    0 -0.82772285957E+02  0.37283541345E+02  0.27529322404E+03  0.30007905677E+03  0.77587159577E+02 0.  0.
          6    2    1    2  501    0  0.61975083140E+02 -0.42210012566E+02  0.85562241468E+03  0.87597337895E+03  0.17209604305E+03 0.  0.
         24    2    5    5    0    0  0.19466419741E+01 -0.53380667368E+02  0.72628405774E+03  0.73286957797E+03  0.82194894798E+02 0.  0.
          5    1    5    5  501    0  0.60028441166E+02  0.11170654802E+02  0.12933835694E+03  0.14310380098E+03  0.47000000000E+01 0. -1.
        -11    1    6    6    0    0  0.32405778613E+01 -0.49593784844E+02  0.18467263305E+03  0.19124336913E+03  0.00000000000E+00 0.  1.
         12    1    6    6    0    0 -0.12939358872E+01 -0.37868825236E+01  0.54161142469E+03  0.54162620884E+03  0.00000000000E+00 0. -1.
         -5    1    3    3    0  503  0.20797202817E+02  0.49264712210E+01 -0.13060966691E+02  0.25484752590E+02  0.47000000000E+01 0.  1.
         13    1    4    4    0    0 -0.74557585162E+02  0.51929113196E+02  0.16365965332E+03  0.18718960556E+03  0.00000000000E+00 0. -1.
        -14    1    4    4    0    0 -0.82147007949E+01 -0.14645571852E+02  0.11163357072E+03  0.11288945121E+03  0.00000000000E+00 0.  1.
</event>
<event>
12    1  0.8297444E-002  0.1837588E+03  0.7818608E-02  0.1164242E+00
         21   -1    0    0  501  502  0.00000000000E+00  0.00000000000E+00  0.17911609147E+04  0.17911609147E+04  0.00000000000E+00 0. -1.
         21   -1    0    0  502  503 -0.00000000000E+00 -0.00000000000E+00 -0.25818860307E+02  0.25818860307E+02  0.00000000000E+00 0.  1.
         -6    2    1    2    0  503 -0.39724283526E+02 -0.54119803850E+02  0.41055432000E+03  0.44980234594E+03  0.17105650784E+03 0.  0.
        -24    2    3    3    0    0  0.11732056570E+02 -0.40032486242E+02  0.37529244186E+03  0.38567982647E+03  0.78512868519E+02 0.  0.
          6    2    1    2  501    0  0.39724283526E+02  0.54119803850E+02  0.13547877344E+04  0.13671774291E+04  0.17093082054E+03 0.  0.
         24    2    5    5    0    0  0.49888831244E+02  0.87614595684E+02  0.71670589418E+03  0.72811894667E+03  0.79527661143E+02 0.  0.
          5    1    5    5  501    0 -0.10164547717E+02 -0.33494791834E+02  0.63808184025E+03  0.63905848243E+03  0.47000000000E+01 0. -1.
        -11    1    6    6    0    0 -0.15851598188E+02  0.46647852496E+02  0.22335955218E+03  0.22872862711E+03  0.00000000000E+00 0.  1.
         12    1    6    6    0    0  0.65740429431E+02  0.40966743188E+02  0.49334634200E+03  0.49939031956E+03  0.00000000000E+00 0. -1.
         -5    1    3    3    0  503 -0.51456340097E+02 -0.14087317608E+02  0.35261878140E+02  0.64122519473E+02  0.47000000000E+01 0.  1.
         13    1    4    4    0    0 -0.25268749252E+02  0.72245488900E+01  0.75638827246E+02  0.80074565141E+02  0.00000000000E+00 0. -1.
        -14    1    4    4    0    0  0.37000805822E+02 -0.47257035132E+02  0.29965361461E+03  0.30560526133E+03  0.00000000000E+00 0.  1.
</event>
<event>
12    1  0.8297444E-002  0.1996704E+03  0.7818608E-02  0.1151005E+00
         21   -1    0    0  501  502  0.00000000000E+00  0.00000000000E+00  0.39599656429E+02  0.39599656429E+02  0.00000000000E+00 0. -1.
         21   -1    0    0  502  503 -0.00000000000E+00 -0.00000000000E+00 -0.18361676646E+04  0.18361676646E+04  0.00000000000E+00 0. -1.
         -6    2    1    2    0  503  0.10059633702E+03 -0.91842448449E+01 -0.15429553749E+04  0.15558211876E+04  0.17223328707E+03 0.  0.
        -24    2    3    3    0    0  0.65252315627E+02 -0.63237062592E+02 -0.12471723696E+04  0.12530331706E+04  0.79977599110E+02 0.  0.
          6    2    1    2  501    0 -0.10059633702E+03  0.91842448449E+01 -0.25361263322E+03  0.31994613347E+03  0.16685978312E+03 0.  0.
         24    2    5    5    0    0 -0.50858880435E+02  0.69112803293E+02 -0.14602358355E+03  0.18704489077E+03  0.79370642619E+02 0.  0.
          5    1    5    5  501    0 -0.49737456584E+02 -0.59928558449E+02 -0.10758904966E+03  0.13290124271E+03  0.47000000000E+01 0. -1.
        -13    1    6    6    0    0 -0.16311496522E+02 -0.13077504641E+02 -0.58436779800E+02  0.62064025649E+02  0.00000000000E+00 0.  1.
         14    1    6    6    0    0 -0.34547383913E+02  0.82190307934E+02 -0.87586803753E+02  0.12498086512E+03  0.00000000000E+00 0. -1.
         -5    1    3    3    0  503  0.35344021393E+02  0.54052817747E+02 -0.29578300539E+03  0.30278801698E+03  0.47000000000E+01 0.  1.
         13    1    4    4    0    0 -0.12476011044E+02 -0.48950500418E+01 -0.41314590890E+03  0.41336322334E+03  0.00000000000E+00 0. -1.
        -14    1    4    4    0    0  0.77728326671E+02 -0.58342012550E+02 -0.83402646066E+03  0.83966994723E+03  0.00000000000E+00 0.  1.
</event>
<event>
12    1  0.8297444E-002  0.1792255E+03  0.7818608E-02  0.1169943E+00
         21   -1    0    0  503  502  0.00000000000E+00  0.00000000000E+00  0.32262129647E+03  0.32262129647E+03  0.00000000000E+00 0. -1.
         21   -1    0    0  501  503 -0.00000000000E+00 -0.00000000000E+00 -0.11055767360E+03  0.11055767360E+03  0.00000000000E+00 0. -1.
          6    2    1    2  501    0  0.27667361883E+02 -0.12065899453E+02  0.27266918798E+02  0.17574624593E+03  0.17097423565E+03 0.  0.
         24    2    3    3    0    0 -0.41715562882E+02  0.23266526235E+02  0.26007157240E+02  0.97733121697E+02  0.81202656479E+02 0.  0.
         -6    2    1    2    0  502 -0.27667361883E+02  0.12065899453E+02  0.18479670407E+03  0.25743272414E+03  0.17666555063E+03 0.  0.
        -24    2    5    5    0    0  0.17001349283E+01 -0.23662355204E+02  0.19421528955E+03  0.21000111230E+03  0.76276411556E+02 0.  0.
          5    1    3    3  501    0  0.69382924765E+02 -0.35332425689E+02  0.12597615582E+01  0.78013124237E+02  0.47000000000E+01 0. -1.
        -13    1    4    4    0    0  0.60764968705E+01  0.18765230440E+02  0.42598283577E+02  0.46943279087E+02  0.00000000000E+00 0.  1.
         14    1    4    4    0    0 -0.47792059752E+02  0.45012957959E+01 -0.16591126337E+02  0.50789842610E+02  0.00000000000E+00 0. -1.
         -5    1    5    5    0  502 -0.29367496812E+02  0.35728254658E+02 -0.94185854755E+01  0.47431611845E+02  0.47000000000E+01 0.  1.
         11    1    6    6    0    0 -0.16356515098E+02  0.19886811100E+02  0.31996519180E+02  0.41070647444E+02  0.00000000000E+00 0. -1.
        -12    1    6    6    0    0  0.18056650026E+02 -0.43549166305E+02  0.16221877037E+03  0.16893046485E+03  0.00000000000E+00 0.  1.
</event>
<event>
12    1  0.8297444E-002  0.2101238E+03  0.7818608E-02  0.1141641E+00
         21   -1    0    0  503  502  0.00000000000E+00  0.00000000000E+00  0.24591690900E+03  0.24591690900E+03  0.00000000000E+00 0. -1.
         21   -1    0    0  501  503 -0.00000000000E+00 -0.00000000000E+00 -0.18471365357E+03  0.18471365357E+03  0.00000000000E+00 0. -1.
          6    2    1    2  501    0 -0.40067120076E+02  0.11287880749E+03 -0.79938053396E+01  0.20940615524E+03  0.17158099440E+03 0.  0.
         24    2    3    3    0    0  0.27820165282E+02  0.99759541886E+02  0.27577724543E+02  0.13150735948E+03  0.76208443841E+02 0.  0.
         -6    2    1    2    0  502  0.40067120076E+02 -0.11287880749E+03  0.69197060771E+02  0.22122440733E+03  0.17264126357E+03 0.  0.
        -24    2    5    5    0    0  0.56464428202E+01 -0.14325428053E+03  0.55919199742E+02  0.17320520306E+03  0.79494743607E+02 0.  0.
          5    1    3    3  501    0 -0.67887285358E+02  0.13119265600E+02 -0.35571529883E+02  0.77898795763E+02  0.47000000000E+01 0. -1.
        -11    1    4    4    0    0  0.18070796688E+02 -0.84274012270E+01  0.34691567462E+01  0.20238819949E+02  0.00000000000E+00 0.  1.
         12    1    4    4    0    0  0.97493685935E+01  0.10818694311E+03  0.24108567797E+02  0.11126853953E+03  0.00000000000E+00 0. -1.
         -5    1    5    5    0  502  0.34420677256E+02  0.30375473039E+02  0.13277861029E+02  0.48019204269E+02  0.47000000000E+01 0.  1.
         13    1    6    6    0    0  0.15533240710E+02 -0.16998264559E+02 -0.15552485968E+02  0.27786730371E+02  0.00000000000E+00 0. -1.
        -14    1    6    6    0    0 -0.98867978894E+01 -0.12625601597E+03  0.71471685709E+02  0.14541847269E+03  0.00000000000E+00 0.  1.
</event>
<event>
12    1  0.8297444E-002  0.1942920E+03  0.7818608E-02  0.1155712E+00
         21   -1    0    0  503  502  0.00000000000E+00  0.00000000000E+00  0.30848243792E+02  0.30848243792E+02  0.00000000000E+00 0.  1.
         21   -1    0    0  501  503 -0.00000000000E+00 -0.00000000000E+00 -0.13816422838E+04  0.13816422838E+04  0.00000000000E+00 0.  1.
          6    2    1    2  501    0  0.16757023904E+02 -0.81392085461E+02 -0.92858679037E+03  0.94772353539E+03  0.17029680812E+03 0.  0.
         24    2    3    3    0    0 -0.28106708467E+02 -0.10402023257E+03 -0.74566812993E+03  0.75797076503E+03  0.82997137275E+02 0.  0.
         -6    2    1    2    0  502 -0.16757023904E+02  0.81392085461E+02 -0.42220724965E+03  0.46476699221E+03  0.17562438888E+03 0.  0.
        -24    2    5    5    0    0  0.31122005111E+02  0.73252239918E+02 -0.39117861462E+03  0.40694377286E+03  0.79044644841E+02 0.  0.
          5    1    3    3  501    0  0.44863732371E+02  0.22628147104E+02 -0.18291866044E+03  0.18975277036E+03  0.47000000000E+01 0. -1.
        -13    1    4    4    0    0  0.21725189807E+02 -0.55512246288E+01 -0.20009988652E+03  0.20135233933E+03  0.00000000000E+00 0.  1.
         14    1    4    4    0    0 -0.49831898274E+02 -0.98469007937E+02 -0.54556824341E+03  0.55661842570E+03  0.00000000000E+00 0. -1.
         -5    1    5    5    0  502 -0.47879029014E+02  0.81398455437E+01 -0.31028635031E+02  0.57823219356E+02  0.47000000000E+01 0.  1.
         13    1    6    6    0    0  0.56190078142E+00 -0.16751777921E+02 -0.71180891322E+02  0.73127676604E+02  0.00000000000E+00 0. -1.
        -14    1    6    6    0    0  0.30560104329E+02  0.90004017839E+02 -0.31999772330E+03  0.33381609625E+03  0.00000000000E+00 0.  1.
</event>
<event>
12    1  0.8297444E-002  0.2190419E+03  0.7818608E-02  0.1135809E+00
         21   -1    0    0  501  502  0.00000000000E+00  0.00000000000E+00  0.20172207857E+03  0.20172207857E+03  0.00000000000E+00 0.  1.
         21   -1    0    0  502  503 -0.00000000000E+00 -0.00000000000E+00 -0.11795407780E+04  0.11795407780E+04  0.00000000000E+00 0. -1.
         -6    2    1    2    0  503 -0.94033893592E+02 -0.85031950298E+02 -0.11068110144E+04  0.11270613794E+04  0.17077448818E+03 0.  0.
        -24    2    3    3    0    0  0.10050492122E+01 -0.79413349834E+02 -0.73829355050E+03  0.74641563799E+03  0.75838299468E+02 0.  0.
          6    2    1    2  501    0  0.94033893592E+02  0.85031950298E+02  0.12899231489E+03  0.25420147717E+03  0.17862409685E+03 0.  0.
         24    2    5    5    0    0 -0.23495964188E+02  0.33032603682E+02  0.70151616023E+02  0.11277475635E+03  0.78445415411E+02 0.  0.
          5    1    5    5  501    0  0.11752985778E+03  0.51999346616E+02  0.58840698870E+02  0.14142672082E+03  0.47000000000E+01 0. -1.
        -13    1    6    6    0    0 -0.12139057428E+02 -0.18186408951E+02  0.53398397223E+02  0.57701741844E+02  0.00000000000E+00 0.  1.
         14    1    6    6    0    0 -0.11356906760E+02  0.51219012633E+02  0.16753218800E+02  0.55073014502E+02  0.00000000000E+00 0. -1.
         -5    1    3    3    0  503 -0.95038942805E+02 -0.56186004638E+01 -0.36851746385E+03  0.38064574145E+03  0.47000000000E+01 0.  1.
         11    1    4    4    0    0 -0.24338583355E+02 -0.92218084030E+01 -0.35321033596E+03  0.35416796837E+03  0.00000000000E+00 0. -1.
        -12    1    4    4    0    0  0.25343632567E+02 -0.70191541431E+02 -0.38508321454E+03  0.39224766962E+03  0.00000000000E+00 0.  1.
</event>
<event>
12    1  0.8297444E-002  0.2029369E+03  0.7818608E-02  0.1148887E+00
         21   -1    0    0  501  502  0.00000000000E+00  0.00000000000E+00  0.97855649335E+03  0.97855649335E+03  0.00000000000E+00 0.  1.
         21   -1    0    0  502  503 -0.00000000000E+00 -0.00000000000E+00 -0.86164467386E+02  0.86164467386E+02  0.00000000000E+00 0.  1.
         -6    2    1    2    0  503 -0.99193933941E+02 -0.42232376671E+02  0.54796882271E+02  0.20289208380E+03  0.16290945090E+03 0.  0.
        -24    2    3    3    0    0 -0.10873506428E+03 -0.71739265644E+02  0.70244837814E+02  0.16792897473E+03  0.79347128978E+02 0.  0.
          6    2    1    2  501    0  0.99193933941E+02  0.42232376671E+02  0.83759514370E+03  0.86182887694E+03  0.17193131832E+03 0.  0.
         24    2    5    5    0    0  0.13100564435E+03  0.61688030963E+02  0.66634630186E+03  0.68650414043E+03  0.79389223502E+02 0.  0.
          5    1    5    5  501    0 -0.31811710411E+02 -0.19455654292E+02  0.17124884184E+03  0.17532473651E+03  0.47000000000E+01 0. -1.
        -13    1    6    6    0    0  0.17285892808E+02  0.22930495363E+02  0.29065308950E+03  0.29206819092E+03  0.00000000000E+00 0.  1.
         14    1    6    6    0    0  0.11371975154E+03  0.38757535600E+02  0.37569321236E+03  0.39443594951E+03  0.00000000000E+00 0. -1.
         -5    1    3    3    0  503  0.95411303359E+01  0.29506888973E+02 -0.15447955543E+02  0.34963109064E+02  0.47000000000E+01 0.  1.
         11    1    4    4    0    0 -0.46473370473E+02  0.71353016352E+01  0.43235992822E+02  0.63875173329E+02  0.00000000000E+00 0. -1.
        -12    1    4    4    0    0 -0.62261693803E+02 -0.78874567279E+02  0.27008844992E+02  0.10405380140E+03  0.00000000000E+00 0.  1.
</event>
<event>
12    1  0.8297444E-002  0.2821827E+03  0.7818608E-02  0.1094567E+00
         21   -1    0    0  501  502  0.00000000000E+00  0.00000000000E+00  0.26252665595E+03  0.26252665595E+03  0.00000000000E+00 0.  1.
         21   -1    0    0  502  503 -0.00000000000E+00 -0.00000000000E+00 -0.30515601830E+03  0.30515601830E+03  0.00000000000E+00 0. -1.
         -6    2    1    2    0  503  0.72644970671E+02  0.21101861343E+03  0.36263310128E+01  0.28173397125E+03  0.17191490134E+03 0.  0.
        -24    2    3    3    0    0  0.11174304644E+03  0.15388517103E+03 -0.34868772458E+02  0.20238126014E+03  0.59792883126E+02 0.  0.
          6    2    1    2  501    0 -0.72644970671E+02 -0.21101861343E+03 -0.46255693364E+02  0.28594870300E+03  0.17268736087E+03 0.  0.
         24    2    5    5    0    0 -0.46009801181E+01 -0.17537410803E+03  0.64413298415E+01  0.19267715499E+03  0.79408743454E+02 0.  0.
          5    1    5    5  501    0 -0.68043990553E+02 -0.35644505393E+02 -0.52697023205E+02  0.93271548018E+02  0.47000000000E+01 0. -1.
        -13    1    6    6    0    0 -0.30555099953E+02 -0.13428662975E+03 -0.16921809894E+02  0.13875467817E+03  0.00000000000E+00 0.  1.
         14    1    6    6    0    0  0.25954119835E+02 -0.41087478279E+02  0.23363139736E+02  0.53922476817E+02  0.00000000000E+00 0. -1.
         -5    1    3    3    0  503 -0.39098075773E+02  0.57133442394E+02  0.38495103471E+02  0.79352711108E+02  0.47000000000E+01 0.  1.
         11    1    4    4    0    0  0.14779630253E+02  0.38894989739E+02  0.14514259640E+02  0.44067237605E+02  0.00000000000E+00 0. -1.
        -12    1    4    4    0    0  0.96963416190E+02  0.11499018129E+03 -0.49383032098E+02  0.15831402254E+03  0.00000000000E+00 0.  1.
</event>
<event>
12    1  0.8297444E-002  0.2117916E+03  0.7818608E-02  0.1140349E+00
         21   -1    0    0  501  502  0.00000000000E+00  0.00000000000E+00  0.32904347645E+03  0.32904347645E+03  0.00000000000E+00 0.  1.
         21   -1    0    0  502  503 -0.00000000000E+00 -0.00000000000E+00 -0.29436417273E+03  0.29436417273E+03  0.00000000000E+00 0.  1.
         -6    2    1    2    0  503 -0.68647062580E+02 -0.10128346364E+03 -0.21153142787E+03  0.29863784778E+03  0.17166321662E+03 0.  0.
        -24    2    3    3    0    0 -0.10743480075E+03 -0.72942880614E+02 -0.11689218276E+03  0.19240059445E+03  0.80568642227E+02 0.  0.
          6    2    1    2  501    0  0.68647062580E+02  0.10128346364E+03  0.24621073158E+03  0.32476980140E+03  0.17287261307E+03 0.  0.
         24    2    5    5    0    0 -0.24663696750E+02  0.70055695920E+02  0.92602698720E+02  0.14228805151E+03  0.78450821057E+02 0.  0.
          5    1    5    5  501    0  0.93310759330E+02  0.31227767718E+02  0.15360803286E+03  0.18248174989E+03  0.47000000000E+01 0. -1.
        -13    1    6    6    0    0  0.60913982103E+01  0.76282568169E+02  0.62505341792E+02  0.98808163079E+02  0.00000000000E+00 0.  1.
         14    1    6    6    0    0 -0.30755094960E+02 -0.62268722487E+01  0.30097356929E+02  0.43479888433E+02  0.00000000000E+00 0. -1.
         -5    1    3    3    0  503  0.38787738171E+02 -0.28340583024E+02 -0.94639245116E+02  0.10623725333E+03  0.47000000000E+01 0.  1.
         13    1    4    4    0    0  0.10043557598E+01 -0.27106578918E+02 -0.91436986150E+00  0.27140586275E+02  0.00000000000E+00 0. -1.
        -14    1    4    4    0    0 -0.10843915651E+03 -0.45836301697E+02 -0.11597781289E+03  0.16526000817E+03  0.00000000000E+00 0.  1.
</event>
<event>
12    1  0.8297444E-002  0.1756309E+03  0.7818608E-02  0.1173119E+00
         21   -1    0    0  503  502  0.00000000000E+00  0.00000000000E+00  0.38705619033E+03  0.38705619033E+03  0.00000000000E+00 0.  1.
         21   -1    0    0  501  503 -0.00000000000E+00 -0.00000000000E+00 -0.12925087893E+03  0.12925087893E+03  0.00000000000E+00 0.  1.
          6    2    1    2  501    0 -0.82646667835E+01  0.12819850593E+02 -0.34747906038E+02  0.17508337565E+03  0.17092138008E+03 0.  0.
         24    2    3    3    0    0  0.38787319891E+02  0.39993010992E+01  0.30185534017E+02  0.94274136196E+02  0.80349210936E+02 0.  0.
         -6    2    1    2    0  502  0.82646667835E+01 -0.12819850593E+02  0.29255321744E+03  0.34122369361E+03  0.17496734198E+03 0.  0.
        -24    2    5    5    0    0 -0.62590309466E+02 -0.12469151186E+02  0.14141393408E+03  0.17423350341E+03  0.79286735255E+02 0.  0.
          5    1    3    3  501    0 -0.47051986675E+02  0.88205494937E+01 -0.64933440055E+02  0.80809239452E+02  0.47000000000E+01 0. -1.
        -11    1    4    4    0    0  0.97584397710E+01  0.22556918766E+02 -0.21166079975E+02  0.32435238129E+02  0.00000000000E+00 0.  1.
         12    1    4    4    0    0  0.29028880120E+02 -0.18557617667E+02  0.51351613992E+02  0.61838898067E+02  0.00000000000E+00 0. -1.
         -5    1    5    5    0  502  0.70854976250E+02 -0.35069940704E+00  0.15113928336E+03  0.16699019020E+03  0.47000000000E+01 0.  1.
         13    1    6    6    0    0 -0.66185377280E+02 -0.18687893094E+02  0.56470366690E+02  0.88986762095E+02  0.00000000000E+00 0. -1.
        -14    1    6    6    0    0  0.35950678140E+01  0.62187419085E+01  0.84943567390E+02  0.85246741313E+02  0.00000000000E+00 0.  1.
</event>
<event>
12    1  0.8297444E-002  0.2540490E+03  0.7818608E-02  0.1111199E+00
         21   -1    0    0  503  502  0.00000000000E+00  0.00000000000E+00  0.58160243091E+02  0.58160243091E+02  0.00000000000E+00 0.  1.
         21   -1    0    0  501  503 -0.00000000000E+00 -0.00000000000E+00 -0.12560761666E+04  0.12560761666E+04  0.00000000000E+00 0. -1.
          6    2    1    2  501    0 -0.64054310293E+02  0.17080816086E+03 -0.82940297685E+03  0.86663982807E+03  0.17284938855E+03 0.  0.
         24    2    3    3    0    0 -0.38875527260E+02  0.16980541005E+03 -0.49158620092E+03  0.52785192876E+03  0.81397062973E+02 0.  0.
         -6    2    1    2    0  502  0.64054310293E+02 -0.17080816086E+03 -0.36851294662E+03  0.44759658157E+03  0.17681211928E+03 0.  0.
        -24    2    5    5    0    0 -0.11005838025E+02 -0.15561179536E+02 -0.11208950974E+03  0.13854849460E+03  0.79172901831E+02 0.  0.
          5    1    3    3  501    0 -0.25178783033E+02  0.10027508135E+01 -0.33781677593E+03  0.33878789932E+03  0.47000000000E+01 0. -1.
        -13    1    4    4    0    0 -0.33464559450E+02  0.17833291755E+03 -0.45355091504E+03  0.48849865789E+03  0.00000000000E+00 0.  1.
         14    1    4    4    0    0 -0.54109678096E+01 -0.85275075003E+01 -0.38035285873E+02  0.39353270871E+02  0.00000000000E+00 0. -1.
         -5    1    5    5    0  502  0.75060148318E+02 -0.15524698133E+03 -0.25642343688E+03  0.30904808697E+03  0.47000000000E+01 0.  1.
         11    1    6    6    0    0  0.11728592955E+02 -0.16919215350E+01 -0.11127587193E+03  0.11190505871E+03  0.00000000000E+00 0. -1.
        -12    1    6    6    0    0 -0.22734430981E+02 -0.13869258001E+02 -0.81363780387E+00  0.26643435889E+02  0.00000000000E+00 0.  1.
</event>
<event>
12    1  0.8297444E-002  0.1794382E+03  0.7818608E-02  0.1168587E+00
         21   -1    0    0  503  502  0.00000000000E+00  0.00000000000E+00  0.55401232033E+02  0.55401232033E+02  0.00000000000E+00 0.  1.
         21   -1    0    0  501  503 -0.00000000000E+00 -0.00000000000E+00 -0.14235918169E+04  0.14235918169E+04  0.00000000000E+00 0.  1.
          6    2    1    2  501    0 -0.50168888734E+02  0.54151636063E+01 -0.12547901170E+04  0.12675552417E+04  0.17219701381E+03 0.  0.
         24    2    3    3    0    0 -0.58176104687E+02 -0.31465934673E+02 -0.11672841259E+04  0.11721418286E+04  0.83604255495E+02 0.  0.
         -6    2    1    2    0  502  0.50168888734E+02 -0.54151636063E+01 -0.11340046779E+03  0.21143780719E+03  0.17117254108E+03 0.  0.
        -24    2    5    5    0    0 -0.44649533029E+01 -0.60454116438E+02 -0.61368025563E+02  0.11793054507E+03  0.80417304712E+02 0.  0.
          5    1    3    3  501    0  0.80072159530E+01  0.36881098279E+02 -0.87505991082E+02  0.95413413066E+02  0.47000000000E+01 0. -1.
        -11    1    4    4    0    0 -0.37455148333E+02  0.22979352119E+02 -0.67375615187E+03  0.67518759686E+03  0.00000000000E+00 0.  1.
         12    1    4    4    0    0 -0.20720956354E+02 -0.54445286792E+02 -0.49352797407E+03  0.49695423177E+03  0.00000000000E+00 0. -1.
         -5    1    5    5    0  502  0.54633842037E+02  0.55038952832E+02 -0.52032442228E+02  0.93507262118E+02  0.47000000000E+01 0.  1.
         13    1    6    6    0    0  0.21069648011E+01 -0.19741904460E+02 -0.72537460524E+02  0.75205486978E+02  0.00000000000E+00 0. -1.
        -14    1    6    6    0    0 -0.65719181039E+01 -0.40712211978E+02  0.11169434961E+02  0.42725058093E+02  0.00000000000E+00 0.  1.
</event>
<event>
12    1  0.8297444E-002  0.2524764E+03  0.7818608E-02  0.1111878E+00
         21   -1    0    0  501  502  0.00000000000E+00  0.00000000000E+00  0.21702844631E+04  0.21702844631E+04  0.00000000000E+00 0. -1.
         21   -1    0    0  502  503 -0.00000000000E+00 -0.00000000000E+00 -0.57075071631E+02  0.57075071631E+02  0.00000000000E+00 0. -1.
         -6    2    1    2    0  503 -0.18412083029E+03 -0.29783129002E+01  0.28025152524E+03  0.37720716221E+03  0.17272803863E+03 0.  0.
        -24    2    3    3    0    0 -0.24347411684E+02 -0.20665850185E+02  0.65594922210E+02  0.10899094068E+03  0.80971955087E+02 0.  0.
          6    2    1    2  501    0  0.18412083029E+03  0.29783129002E+01  0.18329578662E+04  0.18501523725E+04  0.17152233584E+03 0.  0.
         24    2    5    5    0    0  0.15880196346E+03 -0.54066011693E+02  0.12291955089E+04  0.12431547002E+04  0.79817369676E+02 0.  0.
          5    1    5    5  501    0  0.25318866831E+02  0.57044324593E+02  0.60376235732E+03  0.60699767224E+03  0.47000000000E+01 0. -1.
        -11    1    6    6    0    0  0.47013965858E+01 -0.26681512670E+02  0.25932838050E+03  0.26073974607E+03  0.00000000000E+00 0.  1.
         12    1    6    6    0    0  0.15410056687E+03 -0.27384499022E+02  0.96986712836E+03  0.98241495417E+03  0.00000000000E+00 0. -1.
         -5    1    3    3    0  503 -0.15977341860E+03  0.17687537285E+02  0.21465660303E+03  0.26821622153E+03  0.47000000000E+01 0.  1.
         11    1    4    4    0    0 -0.41170279758E+02 -0.78177892310E+01  0.74932915571E+02  0.85854828634E+02  0.00000000000E+00 0. -1.
        -12    1    4    4    0    0  0.16822868074E+02 -0.12848060954E+02 -0.93379933606E+01  0.23136112044E+02  0.00000000000E+00 0.  1.
</event>
<event>
12    1  0.8297444E-002  0.1987145E+03  0.7818608E-02  0.1151024E+00
         21   -1    0    0  501  502  0.00000000000E+00  0.00000000000E+00  0.47314018188E+03  0.47314018188E+03  0.00000000000E+00 0. -1.
         21   -1    0    0  502  503 -0.00000000000E+00 -0.00000000000E+00 -0.11955249364E+03  0.11955249364E+03  0.00000000000E+00 0. -1.
         -6    2    1    2    0  503 -0.78177747756E+02  0.60986943733E+02  0.12810859393E+02  0.19821035478E+03  0.17114923042E+03 0.  0.
        -24    2    3    3    0    0 -0.68903814949E+02  0.87416135386E+02  0.55138450269E+02  0.14723758802E+03  0.79052781033E+02 0.  0.
          6    2    1    2  501    0  0.78177747756E+02 -0.60986943733E+02  0.34077682885E+03  0.39448232074E+03  0.17221000769E+03 0.  0.
         24    2    5    5    0    0 -0.68485682193E+01 -0.65324320031E+02  0.25126534849E+03  0.27085917421E+03  0.76917145227E+02 0.  0.
          5    1    5    5  501    0  0.85026315976E+02  0.43373762981E+01  0.89511480358E+02  0.12362314653E+03  0.47000000000E+01 0. -1.
        -13    1    6    6    0    0 -0.14495130422E+02  0.14287352199E+02  0.38312300822E+02  0.43382826476E+02  0.00000000000E+00 0.  1.
         14    1    6    6    0    0  0.76465622028E+01 -0.79611672231E+02  0.21295304767E+03  0.22747634774E+03  0.00000000000E+00 0. -1.
         -5    1    3    3    0  503 -0.92739328077E+01 -0.26429191653E+02 -0.42327590876E+02  0.50972766753E+02  0.47000000000E+01 0.  1.
         13    1    4    4    0    0 -0.51460804678E+02  0.22694766000E+02 -0.59365176452E+01  0.56555362819E+02  0.00000000000E+00 0. -1.
        -14    1    4    4    0    0 -0.17443010271E+02  0.64721369386E+02  0.61074967914E+02  0.90682225206E+02  0.00000000000E+00 0.  1.
</event>
<event>
12    1  0.8297444E-002  0.1751192E+03  0.7818608E-02  0.1173402E+00
         21   -1    0    0  503  502  0.00000000000E+00  0.00000000000E+00  0.71068555329E+03  0.71068555329E+03  0.00000000000E+00 0. -1.
         21   -1    0    0  501  503 -0.00000000000E+00 -0.00000000000E+00 -0.79502308826E+02  0.79502308826E+02  0.00000000000E+00 0. -1.
          6    2    1    2  501    0 -0.86682517744E+01 -0.19243323942E+02  0.44127676270E+02  0.17756971867E+03  0.17069947004E+03 0.  0.
         24    2    3    3    0    0 -0.55078778670E+02 -0.50807500147E+01 -0.17293568529E+02  0.99153044302E+02  0.80453544368E+02 0.  0.
         -6    2    1    2    0  502  0.86682517744E+01  0.19243323942E+02  0.58705556819E+03  0.61261814344E+03  0.17384276063E+03 0.  0.
        -24    2    5    5    0    0  0.56822848060E+02  0.42722605865E+02  0.48625622376E+03  0.49836955631E+03  0.82903814139E+02 0.  0.
          5    1    3    3  501    0  0.46410526896E+02 -0.14162573927E+02  0.61421244800E+02  0.78416674373E+02  0.47000000000E+01 0.  1.
        -13    1    4    4    0    0 -0.22048639391E+02  0.19896092346E+02  0.25834669663E+02  0.39362763448E+02  0.00000000000E+00 0.  1.
         14    1    4    4    0    0 -0.33030139279E+02 -0.24976842361E+02 -0.43128238192E+02  0.59790280854E+02  0.00000000000E+00 0. -1.
         -5    1    5    5    0  502 -0.48154596286E+02 -0.23479281924E+02  0.10079934443E+03  0.11424858713E+03  0.47000000000E+01 0.  1.
         13    1    6    6    0    0  0.58946510537E+02  0.51162856235E+01  0.17260278194E+03  0.18246256552E+03  0.00000000000E+00 0. -1.
        -14    1    6    6    0    0 -0.21236624770E+01  0.37606320242E+02  0.31365344182E+03  0.31590699079E+03  0.00000000000E+00 0.  1.
</event>
<event>
12    1  0.8297444E-002  0.2163011E+03  0.7818608E-02  0.1136776E+00
         21   -1    0    0  501  502  0.00000000000E+00  0.00000000000E+00  0.24434550315E+04  0.24434550315E+04  0.00000000000E+00 0.  1.
         21   -1    0    0  502  503 -0.00000000000E+00 -0.00000000000E+00 -0.46506145958E+02  0.46506145958E+02  0.00000000000E+00 0.  1.
         -6    2    1    2    0  503 -0.54086497815E+02  0.12215814161E+03  0.24210249982E+03  0.32428596421E+03  0.16941016899E+03 0.  0.
        -24    2    3    3    0    0 -0.60038421419E+02  0.15280259249E+03  0.21668242398E+03  0.28375476611E+03  0.81315743319E+02 0.  0.
          6    2    1    2  501    0  0.54086497815E+02 -0.12215814161E+03  0.21548463857E+04  0.21656752132E+04  0.17011238164E+03 0.  0.
         24    2    5    5    0    0 -0.30466794515E+02 -0.60228549657E+02  0.12925798915E+04  0.12970497873E+04  0.83783476664E+02 0.  0.
          5    1    5    5  501    0  0.84553292329E+02 -0.61929591957E+02  0.86226649415E+03  0.86862542591E+03  0.47000000000E+01 0. -1.
        -11    1    6    6    0    0 -0.38641984359E+02 -0.44214230922E+02  0.12416756862E+04  0.12430633978E+04  0.00000000000E+00 0.  1.
         12    1    6    6    0    0  0.81751898442E+01 -0.16014318735E+02  0.50904205352E+02  0.53986389545E+02  0.00000000000E+00 0. -1.
         -5    1    3    3    0  503  0.59519236039E+01 -0.30644450874E+02  0.25420075838E+02  0.40531198102E+02  0.47000000000E+01 0.  1.
         13    1    4    4    0    0 -0.57721671540E+02  0.91877170140E+02  0.18639611922E+03  0.21567734934E+03  0.00000000000E+00 0. -1.
        -14    1    4    4    0    0 -0.23167498790E+01  0.60925422347E+02  0.30286304761E+02  0.68077416771E+02  0.00000000000E+00 0.  1.
</event>
<event>
12    1  0.8297444E-002  0.1733380E+03  0.7818608E-02  0.1175317E+00
         21   -1    0    0  503  502  0.00000000000E+00  0.00000000000E+00  0.63307359799E+03  0.63307359799E+03  0.00000000000E+00 0.  1.
         21   -1    0    0  501  503 -0.00000000000E+00 -0.00000000000E+00 -0.22123115260E+03  0.22123115260E+03  0.00000000000E+00 0.  1.
          6    2    1    2  501    0 -0.46382675684E+01  0.15206942483E+02 -0.17324580048E+03  0.24507175622E+03  0.17260733961E+03 0.  0.
         24    2    3    3    0    0 -0.14796715273E+02 -0.28142368216E+02 -0.18050892363E+03  0.19971539222E+03  0.79321060936E+02 0.  0.
         -6    2    1    2    0  502  0.46382675684E+01 -0.15206942483E+02  0.58508824587E+03  0.60923299437E+03  0.16906750531E+03 0.  0.
        -24    2    5    5    0    0  0.30146065664E+02 -0.24643674513E+02  0.57066031952E+03  0.57808889808E+03  0.83770387613E+02 0.  0.
          5    1    3    3  501    0  0.10158447704E+02  0.43349310699E+02  0.72631231441E+01  0.45356364004E+02  0.47000000000E+01 0. -1.
        -13    1    4    4    0    0 -0.35262417534E+02 -0.82264846335E+01 -0.31495684451E+02  0.47990533221E+02  0.00000000000E+00 0.  1.
         14    1    4    4    0    0  0.20465702261E+02 -0.19915883582E+02 -0.14901323917E+03  0.15172485899E+03  0.00000000000E+00 0. -1.
         -5    1    5    5    0  502 -0.25507798096E+02  0.94367320295E+01  0.14427926350E+02  0.31144096292E+02  0.47000000000E+01 0.  1.
         13    1    6    6    0    0  0.33863734845E+02 -0.52672760365E+02  0.43760358794E+03  0.44206116365E+03  0.00000000000E+00 0. -1.
        -14    1    6    6    0    0 -0.37176691806E+01  0.28029085852E+02  0.13305673157E+03  0.13602773443E+03  0.00000000000E+00 0.  1.
</event>
<event>
12    1  0.8297444E-002  0.1941177E+03  0.7818608E-02  0.1154966E+00
         21   -1    0    0  501  502  0.00000000000E+00  0.00000000000E+00  0.31205089249E+03  0.31205089249E+03  0.00000000000E+00 0. -1.
         21   -1    0    0  502  503 -0.00000000000E+00 -0.00000000000E+00 -0.20810291645E+03  0.20810291645E+03  0.00000000000E+00 0. -1.
         -6    2    1    2    0  503  0.85419913862E+02 -0.19146731513E+02 -0.11703588272E+03  0.22601854695E+03  0.17240599383E+03 0.  0.
        -24    2    3    3    0    0  0.11937148197E+03  0.14686229208E+02 -0.94648560107E+02  0.17290865689E+03  0.80460037676E+02 0.  0.
          6    2    1    2  501    0 -0.85419913862E+02  0.19146731513E+02  0.22098385876E+03  0.29413526200E+03  0.17325855680E+03 0.  0.
         24    2    5    5    0    0  0.26509087070E+01 -0.92544066743E+01  0.16741245230E+03  0.18710685442E+03  0.83002255543E+02 0.  0.
          5    1    5    5  501    0 -0.88070822569E+02  0.28401138187E+02  0.53571406458E+02  0.10702840758E+03  0.47000000000E+01 0. -1.
        -13    1    6    6    0    0  0.14909419333E+02 -0.51233186363E+01 -0.31313985734E+01  0.16073109087E+02  0.00000000000E+00 0.  1.
         14    1    6    6    0    0 -0.12258510626E+02 -0.41310880379E+01  0.17054385088E+03  0.17103374533E+03  0.00000000000E+00 0. -1.
         -5    1    3    3    0  503 -0.33951568107E+02 -0.33832960721E+02 -0.22387322615E+02  0.53109890058E+02  0.47000000000E+01 0.  1.
         11    1    4    4    0    0  0.71968588698E+02  0.28808551928E+02 -0.14707729213E+02  0.78903280806E+02  0.00000000000E+00 0. -1.
        -12    1    4    4    0    0  0.47402893271E+02 -0.14122322720E+02 -0.79940830894E+02  0.94005376088E+02  0.00000000000E+00 0.  1.
</event>
<event>
12    1  0.8297444E-002  0.2138078E+03  0.7818608E-02  0.1138915E+00
         21   -1    0    0  501  502  0.00000000000E+00  0.00000000000E+00  0.54332928087E+02  0.54332928087E+02  0.00000000000E+00 0.  1.
         21   -1    0    0  502  503 -0.00000000000E+00 -0.00000000000E+00 -0.83510188431E+03  0.83510188431E+03  0.00000000000E+00 0. -1.
         -6    2    1    2    0  503 -0.12435881106E+03 -0.17255599812E+02 -0.38212180245E+03  0.43787081881E+03  0.17306331917E+03 0.  0.
        -24    2    3    3    0    0  0.36885379503E+01  0.49981808863E+01 -0.10969234678E+03  0.13599128545E+03  0.80141322995E+02 0.  0.
          6    2    1    2  501    0  0.12435881106E+03  0.17255599812E+02 -0.39864715377E+03  0.45156399359E+03  0.17096086535E+03 0.  0.
         24    2    5    5    0    0  0.15574249891E+03  0.60821113351E+01 -0.36436112354E+03  0.40352854233E+03  0.76049576500E+02 0.  0.
          5    1    5    5  501    0 -0.31383687853E+02  0.11173488477E+02 -0.34286030233E+02  0.48035451254E+02  0.47000000000E+01 0. -1.
        -13    1    6    6    0    0  0.88835406900E+02 -0.14365997983E+02 -0.12413391424E+03  0.15332103601E+03  0.00000000000E+00 0.  1.
         14    1    6    6    0    0  0.66907092015E+02  0.20448109318E+02 -0.24022720929E+03  0.25020750632E+03  0.00000000000E+00 0. -1.
         -5    1    3    3    0  503 -0.12804734901E+03 -0.22253780698E+02 -0.27242945567E+03  0.30187953336E+03  0.47000000000E+01 0.  1.
         13    1    4    4    0    0  0.17484508017E+02  0.14793091097E+02 -0.11576970871E+03  0.11801342728E+03  0.00000000000E+00 0. -1.
        -14    1    4    4    0    0 -0.13795970067E+02 -0.97949102107E+01  0.60773619302E+01  0.17977858163E+02  0.00000000000E+00 0.  1.
</event>
<event>
12    1  0.8297444E-002  0.2011459E+03  0.7818608E-02  0.1149272E+00
         21   -1    0    0  503  502  0.00000000000E+00  0.00000000000E+00  0.12781227705E+04  0.12781227705E+04  0.00000000000E+00 0.  1.
         21   -1    0    0  501  503 -0.00000000000E+00 -0.00000000000E+00 -0.38414257960E+02  0.38414257960E+02  0.00000000000E+00 0. -1.
          6    2    1    2  501    0 -0.19028852192E+02 -0.98665907888E+02  0.33926753646E+03  0.39441365510E+03  0.17424870569E+03 0.  0.
         24    2    3    3    0    0 -0.33743777655E+02 -0.77977309942E+02  0.10048958662E+03  0.15424382675E+03  0.80460534898E+02 0.  0.
         -6    2    1    2    0  502  0.19028852192E+02  0.98665907888E+02  0.90044097608E+03  0.92212337336E+03  0.17152406742E+03 0.  0.
        -24    2    5    5    0    0 -0.34251347780E+02  0.11336259441E+03  0.67511749062E+03  0.69007265605E+03  0.79952560028E+02 0.  0.
          5    1    3    3  501    0  0.14714925462E+02 -0.20688597946E+02  0.23877794985E+03  0.24016982835E+03  0.47000000000E+01 0. -1.
        -11    1    4    4    0    0  0.14274202939E+02 -0.13324987134E+02  0.61967185522E+02  0.64971072280E+02  0.00000000000E+00 0.  1.
         12    1    4    4    0    0 -0.48017980593E+02 -0.64652322807E+02  0.38522401096E+02  0.89272754471E+02  0.00000000000E+00 0. -1.
         -5    1    5    5    0  502  0.53280199972E+02 -0.14696686527E+02  0.22532348546E+03  0.23205071731E+03  0.47000000000E+01 0.  1.
         11    1    6    6    0    0 -0.28912844409E+02  0.40839450952E+02  0.11718500200E+03  0.12742110508E+03  0.00000000000E+00 0. -1.
        -12    1    6    6    0    0 -0.53385033705E+01  0.72523143463E+02  0.55793248863E+03  0.56265155098E+03  0.00000000000E+00 0.  1.
</event>
<event>
12    1  0.8297444E-002  0.1925743E+03  0.7818608E-02  0.1156162E+00
         21   -1    0    0  501  502  0.00000000000E+00  0.00000000000E+00  0.54011356685E+02  0.54011356685E+02  0.00000000000E+00 0.  1.
         21   -1    0    0  502  503 -0.00000000000E+00 -0.00000000000E+00 -0.13477884445E+04  0.13477884445E+04  0.00000000000E+00 0.  1.
         -6    2    1    2    0  503 -0.11284822726E+01 -0.85847410217E+02 -0.11378056959E+04  0.11539855160E+04  0.17236507232E+03 0.  0.
        -24    2    3    3    0    0  0.24524728215E+02 -0.10236503395E+03 -0.55538944355E+03  0.57075168628E+03  0.78866919029E+02 0.  0.
          6    2    1    2  501    0  0.11284822726E+01  0.85847410217E+02 -0.15597139191E+03  0.24781428520E+03  0.17237689388E+03 0.  0.
         24    2    5    5    0    0  0.23203426808E+02 -0.24382522837E+02 -0.87944745285E+02  0.11633175416E+03  0.68307337586E+02 0.  0.
          5    1    5    5  501    0 -0.22074944535E+02  0.11022993305E+03 -0.68026646627E+02  0.13148253104E+03  0.47000000000E+01 0. -1.
        -13    1    6    6    0    0  0.14632548099E+02  0.60996274049E+01  0.61866574474E+01  0.17017392536E+02  0.00000000000E+00 0.  1.
         14    1    6    6    0    0  0.85708787087E+01 -0.30482150242E+02 -0.94131402733E+02  0.99314361628E+02  0.00000000000E+00 0. -1.
         -5    1    3    3    0  503 -0.25653210488E+02  0.16517623732E+02 -0.58241625239E+03  0.58323382974E+03  0.47000000000E+01 0.  1.
         11    1    4    4    0    0  0.48596194203E+02 -0.43237619137E+02 -0.33711523106E+03  0.34333330863E+03  0.00000000000E+00 0. -1.
        -12    1    4    4    0    0 -0.24071465988E+02 -0.59127414812E+02 -0.21827421249E+03  0.22741837765E+03  0.00000000000E+00 0.  1.
</event>
<event>
12    1  0.8297444E-002  0.2057347E+03  0.7818608E-02  0.1145134E+00
         21   -1    0    0  501  502  0.00000000000E+00  0.00000000000E+00  0.80469363747E+02  0.80469363747E+02  0.00000000000E+00 0.  1.
         21   -1    0    0  502  503 -0.00000000000E+00 -0.00000000000E+00 -0.13779409877E+04  0.13779409877E+04  0.00000000000E+00 0.  1.
         -6    2    1    2    0  503 -0.47590018915E+02  0.10189050918E+03 -0.12222960258E+04  0.12393711980E+04  0.17142609447E+03 0.  0.
        -24    2    3    3    0    0 -0.14145055798E+02  0.86000484242E+02 -0.11609586630E+04  0.11675699408E+04  0.88308457183E+02 0.  0.
          6    2    1    2  501    0  0.47590018915E+02 -0.10189050918E+03 -0.75175598168E+02  0.21903915351E+03  0.17227969831E+03 0.  0.
         24    2    5    5    0    0 -0.30250837107E+02 -0.24053654010E+02 -0.45262040204E+02  0.10486960486E+03  0.86344023085E+02 0.  0.
          5    1    5    5  501    0  0.77840856023E+02 -0.77836855172E+02 -0.29913557964E+02  0.11416954865E+03  0.47000000000E+01 0. -1.
        -13    1    6    6    0    0  0.48370082218E+00 -0.50291121256E+02 -0.10088281050E+02  0.51295265456E+02  0.00000000000E+00 0.  1.
         14    1    6    6    0    0 -0.30734537930E+02  0.26237467246E+02 -0.35173759154E+02  0.53574339401E+02  0.00000000000E+00 0. -1.
         -5    1    3    3    0  503 -0.33444963117E+02  0.15890024940E+02 -0.61337362776E+02  0.71801257111E+02  0.47000000000E+01 0.  1.
         11    1    4    4    0    0  0.80972798559E+01  0.47650057479E+01 -0.62190585572E+03  0.62197681998E+03  0.00000000000E+00 0. -1.
        -12    1    4    4    0    0 -0.22242335654E+02  0.81235478494E+02 -0.53905280731E+03  0.54559312086E+03  0.00000000000E+00 0.  1.
</event>
<event>
12    1  0.8297444E-002  0.1796718E+03  0.7818608E-02  0.1169153E+00
         21   -1    0    0  501  502  0.00000000000E+00  0.00000000000E+00  0.17682235603E+03  0.17682235603E+03  0.00000000000E+00 0.  1.
         21   -1    0    0  502  503 -0.00000000000E+00 -0.00000000000E+00 -0.19324103449E+03  0.19324103449E+03  0.00000000000E+00 0.  1.
         -6    2    1    2    0  503  0.33408471691E+02 -0.10443244214E+02  0.43290201682E+02  0.18073005719E+03  0.17194221320E+03 0.  0.
        -24    2    3    3    0    0  0.52724890091E+02 -0.38227346208E-01 -0.33454084540E+02  0.10077279446E+03  0.79095289580E+02 0.  0.
          6    2    1    2  501    0 -0.33408471691E+02  0.10443244214E+02 -0.59708880142E+02  0.18933333333E+03  0.17622932052E+03 0.  0.
         24    2    5    5    0    0 -0.24414283647E+02  0.58865158752E+02 -0.83911994324E+02  0.13425649643E+03  0.83201081013E+02 0.  0.
          5    1    5    5  501    0 -0.89941880437E+01 -0.48421914538E+02  0.24203114182E+02  0.55076836894E+02  0.47000000000E+01 0. -1.
        -11    1    6    6    0    0  0.17795300255E+02  0.59159246473E+02 -0.57933216814E+02  0.84692070260E+02  0.00000000000E+00 0.  1.
         12    1    6    6    0    0 -0.42209583903E+02 -0.29408772117E+00 -0.25978777510E+02  0.49564426172E+02  0.00000000000E+00 0. -1.
         -5    1    3    3    0  503 -0.19316418400E+02 -0.10405016867E+02  0.76744286222E+02  0.79957262732E+02  0.47000000000E+01 0.  1.
         13    1    4    4    0    0 -0.11906445221E+02  0.10279243715E+01 -0.34095738310E+02  0.36129481552E+02  0.00000000000E+00 0. -1.
        -14    1    4    4    0    0  0.64631335312E+02 -0.10661517177E+01  0.64165376961E+00  0.64643312904E+02  0.00000000000E+00 0.  1.
</event>
<event>
12    1  0.8297444E-002  0.1852145E+03  0.7818608E-02  0.1163147E+00
         21   -1    0    0  501  502  0.00000000000E+00  0.00000000000E+00  0.23357244015E+03  0.23357244015E+03  0.00000000000E+00 0. -1.
         21   -1    0    0  502  503 -0.00000000000E+00 -0.00000000000E+00 -0.15678976113E+03  0.15678976113E+03  0.00000000000E+00 0. -1.
         -6    2    1    2    0  503 -0.29541201554E+02  0.61278133759E+02 -0.13253862928E+02  0.18442291038E+03  0.17090480603E+03 0.  0.
        -24    2    3    3    0    0 -0.78405043519E+02  0.39544099332E+02  0.20790023962E+02  0.12085310986E+03  0.80387576308E+02 0.  0.
          6    2    1    2  501    0  0.29541201554E+02 -0.61278133759E+02  0.90036541951E+02  0.20593929090E+03  0.17226932514E+03 0.  0.
         24    2    5    5    0    0 -0.31500049743E+02 -0.61602998242E+02  0.69090711000E+01  0.10269973304E+03  0.75579874158E+02 0.  0.
          5    1    5    5  501    0  0.61041251296E+02  0.32486448265E+00  0.83127470851E+02  0.10323955786E+03  0.47000000000E+01 0. -1.
        -11    1    6    6    0    0 -0.31215975967E+02 -0.33042091212E+02  0.38889417718E+02  0.59821432261E+02  0.00000000000E+00 0.  1.
         12    1    6    6    0    0 -0.28407377616E+00 -0.28560907030E+02 -0.31980346618E+02  0.42878300784E+02  0.00000000000E+00 0. -1.
         -5    1    3    3    0  503  0.48863841966E+02  0.21734034427E+02 -0.34043886890E+02  0.63569800524E+02  0.47000000000E+01 0.  1.
         11    1    4    4    0    0 -0.43676823117E+02  0.59242800117E+01 -0.27964438779E+02  0.52199346810E+02  0.00000000000E+00 0. -1.
        -12    1    4    4    0    0 -0.34728220403E+02  0.33619819320E+02  0.48754462740E+02  0.68653763048E+02  0.00000000000E+00 0.  1.
</event>
<event>
12    1  0.8297444E-002  0.1905495E+03  0.7818608E-02  0.1158129E+00
         21   -1    0    0  503  502  0.00000000000E+00  0.00000000000E+00  0.82128790477E+02  0.82128790477E+02  0.00000000000E+00 0. -1.
         21   -1    0    0  501  503 -0.00000000000E+00 -0.00000000000E+00 -0.56042689940E+03  0.56042689940E+03  0.00000000000E+00 0. -1.
          6    2    1    2  501    0  0.63941463583E+02  0.53054082016E+02 -0.38745769721E+03  0.43146068997E+03  0.17067985670E+03 0.  0.
         24    2    3    3    0    0  0.65321593823E+02  0.94536649598E+02 -0.23388043855E+03  0.27230424948E+03  0.79028197580E+02 0.  0.
         -6    2    1    2    0  502 -0.63941463583E+02 -0.53054082016E+02 -0.90840411712E+02  0.21109499990E+03  0.17148140482E+03 0.  0.
        -24    2    5    5    0    0 -0.34536272866E+02 -0.51078506661E+02  0.13715206361E+02  0.10236351684E+03  0.80550696505E+02 0.  0.
          5    1    3    3  501    0 -0.13801302399E+01 -0.41482567583E+02 -0.15357725866E+03  0.15915644049E+03  0.47000000000E+01 0. -1.
        -11    1    4    4    0    0 -0.55215715529E+01 -0.29289515208E+01  0.26990623963E+01  0.68081897186E+01  0.00000000000E+00 0.  1.
         12    1    4    4    0    0  0.70843165376E+02  0.97465601119E+02 -0.23657950094E+03  0.26549605976E+03  0.00000000000E+00 0. -1.
         -5    1    5    5    0  502 -0.29405190717E+02 -0.19755753548E+01 -0.10455561807E+03  0.10873148307E+03  0.47000000000E+01 0.  1.
         11    1    6    6    0    0 -0.47920315169E+02 -0.18556804404E+02 -0.18553319571E+02  0.54634579368E+02  0.00000000000E+00 0. -1.
        -12    1    6    6    0    0  0.13384042303E+02 -0.32521702257E+02  0.32268525932E+02  0.47728937468E+02  0.00000000000E+00 0.  1.
</event>
<event>
12    1  0.8297444E-002  0.1927081E+03  0.7818608E-02  0.1156793E+00
         21   -1    0    0  503  502  0.00000000000E+00  0.00000000000E+00  0.66288671211E+03  0.66288671211E+03  0.00000000000E+00 0. -1.
         21   -1    0    0  501  503 -0.00000000000E+00 -0.00000000000E+00 -0.56042653761E+02  0.56042653761E+02  0.00000000000E+00 0. -1.
          6    2    1    2  501    0 -0.75694288864E+02  0.19755418941E+02  0.25816277726E+03  0.32215591297E+03  0.17611504976E+03 0.  0.
         24    2    3    3    0    0 -0.81402450915E+02 -0.29111249461E+02  0.94060227504E+02  0.15077250878E+03  0.80069964062E+02 0.  0.
         -6    2    1    2    0  502  0.75694288864E+02 -0.19755418941E+02  0.34868128109E+03  0.39677345291E+03  0.17242573823E+03 0.  0.
        -24    2    5    5    0    0  0.10670363029E+03  0.25599824845E+02  0.26093651728E+03  0.29313991118E+03  0.76171685857E+02 0.  0.
          5    1    3    3  501    0  0.57081620505E+01  0.48866668402E+02  0.16410254976E+03  0.17138340419E+03  0.47000000000E+01 0. -1.
        -13    1    4    4    0    0 -0.11976957196E+02 -0.15710596236E+02  0.74976514962E+02  0.77535463716E+02  0.00000000000E+00 0.  1.
         14    1    4    4    0    0 -0.69425493719E+02 -0.13400653225E+02  0.19083712542E+02  0.73237045062E+02  0.00000000000E+00 0. -1.
         -5    1    5    5    0  502 -0.31009341427E+02 -0.45355243786E+02  0.87744763809E+02  0.10363354173E+03  0.47000000000E+01 0.  1.
         13    1    6    6    0    0  0.41963631145E+02 -0.54812488518E+01  0.18012513007E+03  0.18502987032E+03  0.00000000000E+00 0. -1.
        -14    1    6    6    0    0  0.64739999147E+02  0.31081073697E+02  0.80811387209E+02  0.10811004086E+03  0.00000000000E+00 0.  1.
</event>
<event>
12    1  0.8297444E-002  0.1958818E+03  0.7818608E-02  0.1153479E+00
         21   -1    0    0  503  502  0.00000000000E+00  0.00000000000E+00  0.20091952003E+04  0.20091952003E+04  0.00000000000E+00 0.  1.
         21   -1    0    0  501  503 -0.00000000000E+00 -0.00000000000E+00 -0.31511572983E+03  0.31511572983E+03  0.00000000000E+00 0. -1.
          6    2    1    2  501    0  0.33491017256E+02 -0.82616757221E+02 -0.27940481668E+03  0.34122825956E+03  0.17442045961E+03 0.  0.
         24    2    3    3    0    0 -0.11516415029E+02  0.18383416411E+02 -0.14208720506E+03  0.16486238844E+03  0.80748098845E+02 0.  0.
         -6    2    1    2    0  502 -0.33491017256E+02  0.82616757221E+02  0.19734842872E+04  0.19830826706E+04  0.17329013203E+03 0.  0.
        -24    2    5    5    0    0  0.25564493662E+02  0.81770989099E+02  0.16523684675E+04  0.16565467180E+04  0.80532220318E+02 0.  0.
          5    1    3    3  501    0  0.45007432284E+02 -0.10100017363E+03 -0.13731761162E+03  0.17636587112E+03  0.47000000000E+01 0. -1.
        -13    1    4    4    0    0 -0.38460983827E+02  0.12730696827E+02 -0.32699146077E+02  0.52062962582E+02  0.00000000000E+00 0.  1.
         14    1    4    4    0    0  0.26944568798E+02  0.56527195844E+01 -0.10938805898E+03  0.11279942586E+03  0.00000000000E+00 0. -1.
         -5    1    5    5    0  502 -0.59055510918E+02  0.84576812254E+00  0.32111581967E+03  0.32653595259E+03  0.47000000000E+01 0.  1.
         11    1    6    6    0    0  0.40637848479E+02  0.74200465984E+02  0.89477874592E+03  0.89876924070E+03  0.00000000000E+00 0. -1.
        -12    1    6    6    0    0 -0.15073354817E+02  0.75705231147E+01  0.75758972160E+03  0.75777747731E+03  0.00000000000E+00 0.  1.
</event>
<event>
12    1  0.8297444E-002  0.2019310E+03  0.7818608E-02  0.1148174E+00
         21   -1    0    0  501  502  0.00000000000E+00  0.00000000000E+00  0.18253549476E+03  0.18253549476E+03  0.00000000000E+00 0.  1.
         21   -1    0    0  502  503 -0.00000000000E+00 -0.00000000000E+00 -0.22394524637E+03  0.22394524637E+03  0.00000000000E+00 0. -1.
         -6    2    1    2    0  503  0.25136686076E+02  0.10542363900E+03 -0.33154449986E+02  0.20438110850E+03  0.17007769786E+03 0.  0.
        -24    2    3    3    0    0 -0.25401227738E+02  0.21599718841E+02 -0.60692771678E+02  0.10259221183E+03  0.75695304802E+02 0.  0.
          6    2    1    2  501    0 -0.25136686076E+02 -0.10542363900E+03 -0.82553016251E+01  0.20209963264E+03  0.17038226099E+03 0.  0.
         24    2    5    5    0    0 -0.58975579669E+02 -0.12848293143E+02  0.13603258057E+02  0.10102959746E+03  0.79866972513E+02 0.  0.
          5    1    5    5  501    0  0.33838893593E+02 -0.92575345856E+02 -0.21858559682E+02  0.10107003518E+03  0.47000000000E+01 0. -1.
        -11    1    6    6    0    0  0.85325862427E+01  0.12728400084E+02  0.23611613611E+02  0.28148276927E+02  0.00000000000E+00 0.  1.
         12    1    6    6    0    0 -0.67508165912E+02 -0.25576693226E+02 -0.10008355554E+02  0.72881320529E+02  0.00000000000E+00 0. -1.
         -5    1    3    3    0  503  0.50537913814E+02  0.83823920158E+02  0.27538321693E+02  0.10178889667E+03  0.47000000000E+01 0.  1.
         11    1    4    4    0    0  0.94088941748E+01 -0.74345625646E+01 -0.55714602345E+02  0.56990498546E+02  0.00000000000E+00 0. -1.
        -12    1    4    4    0    0 -0.34810121913E+02  0.29034281405E+02 -0.49781693335E+01  0.45601713281E+02  0.00000000000E+00 0.  1.
</event>
<event>
12    1  0.8297444E-002  0.1750599E+03  0.7818608E-02  0.1173142E+00
         21   -1    0    0  501  502  0.00000000000E+00  0.00000000000E+00  0.97093388254E+02  0.97093388254E+02  0.00000000000E+00 0.  1.
         21   -1    0    0  502  503 -0.00000000000E+00 -0.00000000000E+00 -0.62731220687E+03  0.62731220687E+03  0.00000000000E+00 0.  1.
         -6    2    1    2    0  503  0.14696451540E+02 -0.72906530533E+01 -0.52107824139E+03  0.54910725693E+03  0.17241550582E+03 0.  0.
        -24    2    3    3    0    0 -0.37013295542E+02 -0.52594328296E+02 -0.28066778457E+03  0.29901607619E+03  0.80622956456E+02 0.  0.
          6    2    1    2  501    0 -0.14696451540E+02  0.72906530533E+01 -0.91405772218E+01  0.17529833819E+03  0.17428946587E+03 0.  0.
         24    2    5    5    0    0 -0.56624247122E+02  0.65650756995E+01 -0.53672937698E+02  0.11394943735E+03  0.82790606054E+02 0.  0.
          5    1    5    5  501    0  0.41927795583E+02  0.72557735378E+00  0.44532360476E+02  0.61348900842E+02  0.47000000000E+01 0. -1.
        -11    1    6    6    0    0 -0.67609010436E+01  0.22843707966E+02  0.14533226808E+02  0.27906261986E+02  0.00000000000E+00 0.  1.
         12    1    6    6    0    0 -0.49863346079E+02 -0.16278632266E+02 -0.68206164506E+02  0.86043175367E+02  0.00000000000E+00 0. -1.
         -5    1    3    3    0  503  0.51709747082E+02  0.45303675242E+02 -0.24041045682E+03  0.25009118074E+03  0.47000000000E+01 0.  1.
         11    1    4    4    0    0  0.18948929322E+02 -0.14802936879E+02 -0.25436671658E+02  0.35003044549E+02  0.00000000000E+00 0. -1.
        -12    1    4    4    0    0 -0.55962224864E+02 -0.37791391417E+02 -0.25523111291E+03  0.26401303164E+03  0.00000000000E+00 0.  1.
</event>
<event>
12    1  0.8297444E-002  0.2031888E+03  0.7818608E-02  0.1148063E+00
         21   -1    0    0  503  502  0.00000000000E+00  0.00000000000E+00  0.29874706527E+03  0.29874706527E+03  0.00000000000E+00 0.  1.
         21   -1    0    0  501  503 -0.00000000000E+00 -0.00000000000E+00 -0.17541213135E+03  0.17541213135E+03  0.00000000000E+00 0.  1.
          6    2    1    2  501    0 -0.63849700776E+02  0.75811673739E+02 -0.51554976903E+02  0.20962733955E+03  0.17737393179E+03 0.  0.
         24    2    3    3    0    0 -0.76520829168E+02  0.79925389884E+02 -0.93940901761E+02  0.16494919297E+03  0.78357118334E+02 0.  0.
         -6    2    1    2    0  502  0.63849700776E+02 -0.75811673739E+02  0.17488991082E+03  0.26453185707E+03  0.17194891199E+03 0.  0.
        -24    2    5    5    0    0  0.33621775942E+02  0.18754799115E+02  0.12490399964E+03  0.15327887264E+03  0.80070202729E+02 0.  0.
          5    1    3    3  501    0  0.12671128392E+02 -0.41137161450E+01  0.42385924858E+02  0.44678146574E+02  0.47000000000E+01 0. -1.
        -11    1    4    4    0    0 -0.12323867838E+02  0.42557453825E+02 -0.76882225942E+02  0.88734949486E+02  0.00000000000E+00 0.  1.
         12    1    4    4    0    0 -0.64196961330E+02  0.37367936060E+02 -0.17058675819E+02  0.76214243486E+02  0.00000000000E+00 0. -1.
         -5    1    5    5    0  502  0.30227924834E+02 -0.94566472855E+02  0.49985911186E+02  0.11125298443E+03  0.47000000000E+01 0.  1.
         13    1    6    6    0    0  0.58426770044E+02  0.16543455129E+02  0.68015382081E+02  0.91178207731E+02  0.00000000000E+00 0. -1.
        -14    1    6    6    0    0 -0.24804994103E+02  0.22113439856E+01  0.56888617557E+02  0.62100664909E+02  0.00000000000E+00 0.  1.
</event>
<event>
12    1  0.8297444E-002  0.3221015E+03  0.7818608E-02  0.1074736E+00
         21   -1    0    0  503  502  0.00000000000E+00  0.00000000000E+00  0.12999742651E+04  0.12999742651E+04  0.00000000000E+00 0.  1.
         21   -1    0    0  501  503 -0.00000000000E+00 -0.00000000000E+00 -0.12354588020E+03  0.12354588020E+03  0.00000000000E+00 0. -1.
          6    2    1    2  501    0  0.20238303300E+03 -0.18032853933E+03  0.16394837699E+03  0.36103947943E+03  0.17318533785E+03 0.  0.
         24    2    3    3    0    0  0.12696004955E+03 -0.66039073769E+02  0.15356182270E+03  0.22363249678E+03  0.77137842728E+02 0.  0.
         -6    2    1    2    0  502 -0.20238303300E+03  0.18032853933E+03  0.10124800079E+04  0.10624806659E+04  0.17398886403E+03 0.  0.
        -24    2    5    5    0    0 -0.14455411113E+03  0.18131579266E+03  0.63463249325E+03  0.68020328856E+03  0.78401559753E+02 0.  0.
          5    1    3    3  501    0  0.75422983452E+02 -0.11428946556E+03  0.10386554295E+02  0.13740698265E+03  0.47000000000E+01 0. -1.
        -11    1    4    4    0    0  0.92606855806E+02 -0.12721124246E+02  0.61707740871E+02  0.11200759808E+03  0.00000000000E+00 0.  1.
         12    1    4    4    0    0  0.34353193740E+02 -0.53317949523E+02  0.91854081825E+02  0.11162489870E+03  0.00000000000E+00 0. -1.
         -5    1    5    5    0  502 -0.57828921871E+02 -0.98725332806E+00  0.37784751465E+03  0.38227737731E+03  0.47000000000E+01 0.  1.
         13    1    6    6    0    0 -0.10213521910E+03  0.13751372306E+03  0.35718895499E+03  0.39613833010E+03  0.00000000000E+00 0. -1.
        -14    1    6    6    0    0 -0.42418892031E+02  0.43802069593E+02  0.27744353826E+03  0.28406495846E+03  0.00000000000E+00 0.  1.
</event>
<event>
12    1  0.8297444E-002  0.5609397E+03  0.7818608E-02  0.9989934E-01
         21   -1    0    0  501  502  0.00000000000E+00  0.00000000000E+00  0.18213074650E+03  0.18213074650E+03  0.00000000000E+00 0. -1.
         21   -1    0    0  502  503 -0.00000000000E+00 -0.00000000000E+00 -0.17751216569E+04  0.17751216569E+04  0.00000000000E+00 0.  1.
         -6    2    1    2    0  503 -0.32171538526E+03 -0.42644490048E+03 -0.63638211313E+03  0.84830977018E+03  0.17114680837E+03 0.  0.
        -24    2    3    3    0    0 -0.20792053539E+03 -0.22221880270E+03 -0.27382969808E+03  0.41688896571E+03  0.78749989659E+02 0.  0.
          6    2    1    2  501    0  0.32171538526E+03  0.42644490048E+03 -0.95660879731E+03  0.11089426333E+04  0.17116462983E+03 0.  0.
         24    2    5    5    0    0  0.26761515698E+03  0.35126545342E+03 -0.88147833627E+03  0.98958828631E+03  0.85297292273E+02 0.  0.
          5    1    5    5  501    0  0.54100228284E+02  0.75179447052E+02 -0.75130461041E+02  0.11935434695E+03  0.47000000000E+01 0. -1.
        -11    1    6    6    0    0  0.11880052798E+03  0.13054908437E+03 -0.43971509463E+03  0.47382063412E+03  0.00000000000E+00 0.  1.
         12    1    6    6    0    0  0.14881462900E+03  0.22071636905E+03 -0.44176324164E+03  0.51576765219E+03  0.00000000000E+00 0. -1.
         -5    1    3    3    0  503 -0.11379484987E+03 -0.20422609778E+03 -0.36255241504E+03  0.43142080446E+03  0.47000000000E+01 0.  1.
         13    1    4    4    0    0 -0.16965592575E+03 -0.21318443504E+03 -0.25549160540E+03  0.37350595299E+03  0.00000000000E+00 0. -1.
        -14    1    4    4    0    0 -0.38264609640E+02 -0.90343676542E+01 -0.18338092680E+02  0.43383012724E+02  0.00000000000E+00 0.  1.
</event>
<event>
12    1  0.8297444E-002  0.1965264E+03  0.7818608E-02  0.1153508E+00
         21   -1    0    0  501  502  0.00000000000E+00  0.00000000000E+00  0.47062798755E+03  0.47062798755E+03  0.00000000000E+00 0.  1.
         21   -1    0    0  502  503 -0.00000000000E+00 -0.00000000000E+00 -0.84286214877E+02  0.84286214877E+02  0.00000000000E+00 0.  1.
         -6    2    1    2    0  503  0.75221658526E+02  0.47718912633E+02  0.24997206477E+03  0.31570858237E+03  0.17102772664E+03 0.  0.
        -24    2    3    3    0    0 -0.23855584273E+02  0.78513933339E+01  0.13082346677E+03  0.15563298292E+03  0.80474297973E+02 0.  0.
          6    2    1    2  501    0 -0.75221658526E+02 -0.47718912633E+02  0.13636970790E+03  0.23920562005E+03  0.17517773517E+03 0.  0.
         24    2    5    5    0    0 -0.24724356768E+02 -0.59558418562E+02  0.15388251524E+03  0.18426074034E+03  0.78190107399E+02 0.  0.
          5    1    5    5  501    0 -0.50497301758E+02  0.11839505929E+02 -0.17512807344E+02  0.54944879712E+02  0.47000000000E+01 0. -1.
        -11    1    6    6    0    0 -0.29153428485E+02 -0.12109521385E+02  0.10662570604E+02  0.33320463869E+02  0.00000000000E+00 0.  1.
         12    1    6    6    0    0  0.44290717165E+01 -0.47448897177E+02  0.14321994464E+03  0.15094027647E+03  0.00000000000E+00 0. -1.
         -5    1    3    3    0  503  0.99077242798E+02  0.39867519299E+02  0.11914859800E+03  0.16007559945E+03  0.47000000000E+01 0.  1.
         13    1    4    4    0    0 -0.22791878594E+02 -0.14944150781E+02  0.12996984036E+03  0.13279667456E+03  0.00000000000E+00 0. -1.
        -14    1    4    4    0    0 -0.10637056790E+01  0.22795544115E+02  0.85362641902E+00  0.22836308356E+02  0.00000000000E+00 0.  1.
</event>
<event>
12    1  0.8297444E-002  0.1918493E+03  0.7818608E-02  0.1157403E+00
         21   -1    0    0  503  502  0.00000000000E+00  0.00000000000E+00  0.80722387937E+02  0.80722387937E+02  0.00000000000E+00 0. -1.
         21   -1    0    0  501  503 -0.00000000000E+00 -0.00000000000E+00 -0.61733870980E+03  0.61733870980E+03  0.00000000000E+00 0.  1.
          6    2    1    2  501    0 -0.78049491868E+02 -0.30102245499E+02 -0.44885156212E+03  0.48708996045E+03  0.16967921614E+03 0.  0.
         24    2    3    3    0    0 -0.19184199224E+02 -0.66940922536E+02 -0.35687262450E+03  0.37174514796E+03  0.77377414679E+02 0.  0.
         -6    2    1    2    0  502  0.78049491868E+02  0.30102245499E+02 -0.87764759746E+02  0.21097113729E+03  0.17265080177E+03 0.  0.
        -24    2    5    5    0    0  0.65116891618E+02  0.70130055040E+02 -0.10967755071E+03  0.16330838355E+03  0.74040724017E+02 0.  0.
          5    1    3    3  501    0 -0.58865292644E+02  0.36838677038E+02 -0.91978937620E+02  0.11534481250E+03  0.47000000000E+01 0. -1.
        -11    1    4    4    0    0 -0.49290333625E+02 -0.45559898527E+02 -0.22460759480E+03  0.23442229626E+03  0.00000000000E+00 0.  1.
         12    1    4    4    0    0  0.30106134401E+02 -0.21381024009E+02 -0.13226502970E+03  0.13732285169E+03  0.00000000000E+00 0. -1.
         -5    1    5    5    0  502  0.12932600250E+02 -0.40027809541E+02  0.21912790968E+02  0.47662753738E+02  0.47000000000E+01 0.  1.
         13    1    6    6    0    0  0.34957790415E+02  0.28037914153E+02 -0.32233379218E+01  0.44928405804E+02  0.00000000000E+00 0. -1.
        -14    1    6    6    0    0  0.30159101203E+02  0.42092140887E+02 -0.10645421279E+03  0.11837997775E+03  0.00000000000E+00 0.  1.
</event>
<event>
12    1  0.8297444E-002  0.1892578E+03  0.7818608E-02  0.1159764E+00
         21   -1    0    0  503  502  0.00000000000E+00  0.00000000000E+00  0.31010456530E+04  0.31010456530E+04  0.00000000000E+00 0.  1.
         21   -1    0    0  501  503 -0.00000000000E+00 -0.00000000000E+00 -0.11437552859E+02  0.11437552859E+02  0.00000000000E+00 0. -1.
          6    2    1    2  501    0 -0.27626650461E+02  0.71172079847E+02  0.16643130439E+04  0.16750392295E+04  0.17317567876E+03 0.  0.
         24    2    3    3    0    0  0.17218964702E+02 -0.20245908770E+02  0.97078945199E+03  0.97406459352E+03  0.75254785118E+02 0.  0.
         -6    2    1    2    0  502  0.27626650461E+02 -0.71172079847E+02  0.14252950563E+04  0.14374439763E+04  0.17014843778E+03 0.  0.
        -24    2    5    5    0    0  0.66201826734E+02 -0.10015157416E+02  0.54936153975E+03  0.55851859340E+03  0.75245814346E+02 0.  0.
          5    1    3    3  501    0 -0.44845615163E+02  0.91417988617E+02  0.69352359188E+03  0.70097463602E+03  0.47000000000E+01 0. -1.
        -13    1    4    4    0    0  0.11119920345E+02  0.27225784451E+02  0.49531019055E+03  0.49618250758E+03  0.00000000000E+00 0.  1.
         14    1    4    4    0    0  0.60990443568E+01 -0.47471693221E+02  0.47547926144E+03  0.47788208594E+03  0.00000000000E+00 0. -1.
         -5    1    5    5    0  502 -0.38575176273E+02 -0.61156922431E+02  0.87593351653E+03  0.87892538294E+03  0.47000000000E+01 0.  1.
         11    1    6    6    0    0  0.47937404324E+01 -0.34334300079E+02  0.19209323911E+03  0.19519640525E+03  0.00000000000E+00 0. -1.
        -12    1    6    6    0    0  0.61408086302E+02  0.24319142663E+02  0.35726830063E+03  0.36332218815E+03  0.00000000000E+00 0.  1.
</event>
<event>
12    1  0.8297444E-002  0.2010224E+03  0.7818608E-02  0.1149258E+00
         21   -1    0    0  501  502  0.00000000000E+00  0.00000000000E+00  0.13231508048E+03  0.13231508048E+03  0.00000000000E+00 0. -1.
         21   -1    0    0  502  503 -0.00000000000E+00 -0.00000000000E+00 -0.64389720452E+03  0.64389720452E+03  0.00000000000E+00 0. -1.
         -6    2    1    2    0  503 -0.92441482317E+02  0.46402512131E+02 -0.53777534092E+03  0.57349053095E+03  0.17026582453E+03 0.  0.
        -24    2    3    3    0    0 -0.71175615373E+02 -0.34513948606E+02 -0.27137440363E+03  0.29422137744E+03  0.81639274390E+02 0.  0.
          6    2    1    2  501    0  0.92441482317E+02 -0.46402512131E+02  0.26193216876E+02  0.20272175405E+03  0.17236996307E+03 0.  0.
         24    2    5    5    0    0  0.63135007086E+02 -0.29705557014E+02 -0.49646943691E+02  0.11958645616E+03  0.83472463971E+02 0.  0.
          5    1    5    5  501    0  0.29306475230E+02 -0.16696955117E+02  0.75840160568E+02  0.83135297892E+02  0.47000000000E+01 0. -1.
        -11    1    6    6    0    0  0.21012476877E+02  0.16856405980E+02 -0.50002954912E+02  0.56797518494E+02  0.00000000000E+00 0.  1.
         12    1    6    6    0    0  0.42122530209E+02 -0.46561962994E+02  0.35601122101E+00  0.62788937665E+02  0.00000000000E+00 0. -1.
         -5    1    3    3    0  503 -0.21265866943E+02  0.80916460737E+02 -0.26640093729E+03  0.27926915351E+03  0.47000000000E+01 0.  1.
         13    1    4    4    0    0 -0.25410158018E+02 -0.59059622974E+01 -0.21349434161E+03  0.21508228755E+03  0.00000000000E+00 0. -1.
        -14    1    4    4    0    0 -0.45765457356E+02 -0.28607986309E+02 -0.57880062021E+02  0.79139089881E+02  0.00000000000E+00 0.  1.
</event>
<event>
12    1  0.8297444E-002  0.1773542E+03  0.7818608E-02  0.1170402E+00
         21   -1    0    0  503  502  0.00000000000E+00  0.00000000000E+00  0.27133652413E+03  0.27133652413E+03  0.00000000000E+00 0. -1.
         21   -1    0    0  501  503 -0.00000000000E+00 -0.00000000000E+00 -0.11680490182E+03  0.11680490182E+03  0.00000000000E+00 0. -1.
          6    2    1    2  501    0  0.36329393467E+02 -0.14878297795E+02  0.60076883522E+02  0.18725319022E+03  0.17295472453E+03 0.  0.
         24    2    3    3    0    0  0.18374955957E+02 -0.72096593045E+02  0.64551944815E+02  0.12693394527E+03  0.80060696642E+02 0.  0.
         -6    2    1    2    0  502 -0.36329393467E+02  0.14878297795E+02  0.94454738786E+02  0.20088823574E+03  0.17289649217E+03 0.  0.
        -24    2    5    5    0    0 -0.37847570950E+02  0.23845886821E+01  0.13310523786E+03  0.15996942944E+03  0.80219007232E+02 0.  0.
          5    1    3    3  501    0  0.17954437510E+02  0.57218295251E+02 -0.44750612935E+01  0.60319244949E+02  0.47000000000E+01 0. -1.
        -11    1    4    4    0    0 -0.21196466965E+02 -0.34606515445E+02 -0.23336023235E+01  0.40649069151E+02  0.00000000000E+00 0.  1.
         12    1    4    4    0    0  0.39571422922E+02 -0.37490077600E+02  0.66885547139E+02  0.86284876117E+02  0.00000000000E+00 0. -1.
         -5    1    5    5    0  502  0.15181774833E+01  0.12493709112E+02 -0.38650499071E+02  0.40918806296E+02  0.47000000000E+01 0.  1.
         13    1    6    6    0    0  0.14583827336E+02 -0.26180452747E+01  0.91926922810E+02  0.93113378835E+02  0.00000000000E+00 0. -1.
        -14    1    6    6    0    0 -0.52431398286E+02  0.50026339568E+01  0.41178315047E+02  0.66856050607E+02  0.00000000000E+00 0.  1.
</event>
<event>
12    1  0.8297444E-002  0.3115132E+03  0.7818608E-02  0.1080495E+00
         21   -1    0    0  503  502  0.00000000000E+00  0.00000000000E+00  0.13074177083E+04  0.13074177083E+04  0.00000000000E+00 0. -1.
         21   -1    0    0  501  503 -0.00000000000E+00 -0.00000000000E+00 -0.76335776573E+02  0.76335776573E+02  0.00000000000E+00 0.  1.
          6    2    1    2  501    0 -0.17931868971E+03  0.17567425712E+03  0.46751410487E+03  0.56179170579E+03  0.18445553758E+03 0.  0.
         24    2    3    3    0    0 -0.11194082188E+03  0.20478685782E+02  0.17293806713E+03  0.22205272591E+03  0.80310110495E+02 0.  0.
         -6    2    1    2    0  502  0.17931868971E+03 -0.17567425712E+03  0.76356782688E+03  0.82196177911E+03  0.17195552618E+03 0.  0.
        -24    2    5    5    0    0  0.15748143863E+03 -0.61959025412E+02  0.51773946126E+03  0.55018669784E+03  0.77536626145E+02 0.  0.
          5    1    3    3  501    0 -0.67377867826E+02  0.15519557133E+03  0.29457603774E+03  0.33973897987E+03  0.47000000000E+01 0. -1.
        -13    1    4    4    0    0 -0.59568261876E+02  0.88650603471E+01  0.25942149084E+02  0.65574097150E+02  0.00000000000E+00 0.  1.
         14    1    4    4    0    0 -0.52372560004E+02  0.11613625435E+02  0.14699591805E+03  0.15647862876E+03  0.00000000000E+00 0. -1.
         -5    1    5    5    0  502  0.21837251078E+02 -0.11371523170E+03  0.24582836562E+03  0.27177508127E+03  0.47000000000E+01 0.  1.
         13    1    6    6    0    0  0.11637824124E+03 -0.43710008328E+02  0.46270553148E+03  0.47911467179E+03  0.00000000000E+00 0. -1.
        -14    1    6    6    0    0  0.41103197388E+02 -0.18249017084E+02  0.55033929779E+02  0.71072026051E+02  0.00000000000E+00 0.  1.
</event>
<event>
12    1  0.8297444E-002  0.2087251E+03  0.7818608E-02  0.1142836E+00
         21   -1    0    0  503  502  0.00000000000E+00  0.00000000000E+00  0.31082632620E+03  0.31082632620E+03  0.00000000000E+00 0. -1.
         21   -1    0    0  501  503 -0.00000000000E+00 -0.00000000000E+00 -0.17210373631E+03  0.17210373631E+03  0.00000000000E+00 0.  1.
          6    2    1    2  501    0  0.10914130643E+03  0.39705873873E+02 -0.35880982312E+02  0.21178673372E+03  0.17342950873E+03 0.  0.
         24    2    3    3    0    0  0.10953893893E+03  0.86498915165E+02 -0.24677683971E+02  0.16344057856E+03  0.81381774175E+02 0.  0.
         -6    2    1    2    0  502 -0.10914130643E+03 -0.39705873873E+02  0.17460357220E+03  0.27114332878E+03  0.17188343763E+03 0.  0.
        -24    2    5    5    0    0 -0.53715224254E+02 -0.82684543164E+02  0.15117314513E+03  0.19704682744E+03  0.79070053743E+02 0.  0.
          5    1    3    3  501    0 -0.39763250092E+00 -0.46793041292E+02 -0.11203298341E+02  0.48346155159E+02  0.47000000000E+01 0. -1.
        -13    1    4    4    0    0  0.70893627030E+02  0.12254406426E+02  0.10389761685E+02  0.72691292313E+02  0.00000000000E+00 0.  1.
         14    1    4    4    0    0  0.38645311900E+02  0.74244508739E+02 -0.35067445657E+02  0.90749286249E+02  0.00000000000E+00 0. -1.
         -5    1    5    5    0  502 -0.55426082175E+02  0.42978669291E+02  0.23430427063E+02  0.74096501346E+02  0.47000000000E+01 0.  1.
         11    1    6    6    0    0 -0.64235536844E+02 -0.36105803929E+02  0.11721000113E+03  0.13844861009E+03  0.00000000000E+00 0. -1.
        -12    1    6    6    0    0  0.10520312590E+02 -0.46578739235E+02  0.33963144004E+02  0.58598217348E+02  0.00000000000E+00 0.  1.
</event>
<event>
12    1  0.8297444E-002  0.1958490E+03  0.7818608E-02  0.1153605E+00
         21   -1    0    0  501  502  0.00000000000E+00  0.00000000000E+00  0.31815194404E+02  0.31815194404E+02  0.00000000000E+00 0. -1.
         21   -1    0    0  502  503 -0.00000000000E+00 -0.00000000000E+00 -0.13488361041E+04  0.13488361041E+04  0.00000000000E+00 0. -1.
         -6    2    1    2    0  503  0.80121105513E+02  0.43409847292E+02 -0.88817643550E+03  0.90920203432E+03  0.17171823504E+03 0.  0.
        -24    2    3    3    0    0 -0.21520452986E+02 -0.42432005057E+01 -0.38225115572E+03  0.39095084224E+03  0.79028351537E+02 0.  0.
          6    2    1    2  501    0 -0.80121105513E+02 -0.43409847292E+02 -0.42884447423E+03  0.47144926422E+03  0.17335806663E+03 0.  0.
         24    2    5    5    0    0 -0.79405058911E+02 -0.31053301398E+02 -0.43935500758E+03  0.45454487838E+03  0.79427658106E+02 0.  0.
          5    1    5    5  501    0 -0.71604660218E+00 -0.12356545894E+02  0.10510533349E+02  0.16904385835E+02  0.47000000000E+01 0. -1.
        -11    1    6    6    0    0  0.27210396420E+01  0.36455551596E+01  0.14807215919E+01  0.47840010020E+01  0.00000000000E+00 0.  1.
         12    1    6    6    0    0 -0.82126098553E+02 -0.34698856557E+02 -0.44083572917E+03  0.44976087738E+03  0.00000000000E+00 0. -1.
         -5    1    3    3    0  503  0.10164155850E+03  0.47653047798E+02 -0.50592527978E+03  0.51825119208E+03  0.47000000000E+01 0.  1.
         13    1    4    4    0    0  0.29718551133E+02 -0.81383286105E+00 -0.16966203195E+03  0.17224708906E+03  0.00000000000E+00 0. -1.
        -14    1    4    4    0    0 -0.51239004119E+02 -0.34293676446E+01 -0.21258912378E+03  0.21870375318E+03  0.00000000000E+00 0.  1.
</event>
<event>
12    1  0.8297444E-002  0.1739859E+03  0.7818608E-02  0.1173774E+00
         21   -1    0    0  501  502  0.00000000000E+00  0.00000000000E+00  0.82509553678E+03  0.82509553678E+03  0.00000000000E+00 0. -1.
         21   -1    0    0  502  503 -0.00000000000E+00 -0.00000000000E+00 -0.38106586260E+02  0.38106586260E+02  0.00000000000E+00 0. -1.
         -6    2    1    2    0  503  0.17642491602E+02 -0.21276220191E+02  0.30963451326E+03  0.35512895152E+03  0.17169480293E+03 0.  0.
        -24    2    3    3    0    0  0.35687368744E+02 -0.69854761990E+02  0.14783227978E+03  0.18516558761E+03  0.79237843418E+02 0.  0.
          6    2    1    2  501    0 -0.17642491602E+02  0.21276220191E+02  0.47735443726E+03  0.50807317151E+03  0.17177646458E+03 0.  0.
         24    2    5    5    0    0  0.18242327627E+02 -0.41246184598E+02  0.18384883995E+03  0.20580773022E+03  0.80761349691E+02 0.  0.
          5    1    5    5  501    0 -0.35884819229E+02  0.62522404789E+02  0.29350559731E+03  0.30226544130E+03  0.47000000000E+01 0. -1.
        -11    1    6    6    0    0  0.50125693142E+02 -0.21061883814E+02  0.11772791330E+03  0.12967671199E+03  0.00000000000E+00 0.  1.
         12    1    6    6    0    0 -0.31883365515E+02 -0.20184300784E+02  0.66120926655E+02  0.76131018228E+02  0.00000000000E+00 0. -1.
         -5    1    3    3    0  503 -0.18044877142E+02  0.48578541799E+02  0.16180223348E+03  0.16996336392E+03  0.47000000000E+01 0.  1.
         13    1    4    4    0    0  0.91735357047E+01  0.17076028671E+02  0.16515782947E+02  0.25465969427E+02  0.00000000000E+00 0. -1.
        -14    1    4    4    0    0  0.26513833040E+02 -0.86930790661E+02  0.13131649683E+03  0.15969961818E+03  0.00000000000E+00 0.  1.
</event>
<event>
12    1  0.8297444E-002  0.1758971E+03  0.7818608E-02  0.1172588E+00
         21   -1    0    0  501  502  0.00000000000E+00  0.00000000000E+00  0.83182786411E+03  0.83182786411E+03  0.00000000000E+00 0.  1.
         21   -1    0    0  502  503 -0.00000000000E+00 -0.00000000000E+00 -0.46331722740E+02  0.46331722740E+02  0.00000000000E+00 0.  1.
         -6    2    1    2    0  503  0.15023207621E+01  0.11344671859E+02  0.19381097039E+03  0.26172980994E+03  0.17552447870E+03 0.  0.
        -24    2    3    3    0    0 -0.51800951020E+02  0.33353266087E+02  0.56633943746E+02  0.11284984608E+03  0.75709347443E+02 0.  0.
          6    2    1    2  501    0 -0.15023207621E+01 -0.11344671859E+02  0.59168517098E+03  0.61642977690E+03  0.17252063572E+03 0.  0.
         24    2    5    5    0    0  0.28982885402E+02  0.29487895233E+01  0.14099520675E+03  0.16445944083E+03  0.79489347372E+02 0.  0.
          5    1    5    5  501    0 -0.30485206164E+02 -0.14293461383E+02  0.45068996423E+03  0.45197033607E+03  0.47000000000E+01 0. -1.
        -13    1    6    6    0    0  0.25092921390E+02 -0.36813807838E+02  0.79285777354E+02  0.90945839059E+02  0.00000000000E+00 0.  1.
         14    1    6    6    0    0  0.38899640121E+01  0.39762597362E+02  0.61709429399E+02  0.73513601774E+02  0.00000000000E+00 0. -1.
         -5    1    3    3    0  503  0.53303271782E+02 -0.22008594228E+02  0.13717702664E+03  0.14887996387E+03  0.47000000000E+01 0.  1.
         13    1    4    4    0    0 -0.22613921559E+02 -0.21933145525E+02  0.34024425770E+02  0.46369320351E+02  0.00000000000E+00 0. -1.
        -14    1    4    4    0    0 -0.29187029462E+02  0.55286411612E+02  0.22609517976E+02  0.66480525727E+02  0.00000000000E+00 0.  1.
</event>
<event>
12    1  0.8297444E-002  0.1787436E+03  0.7818608E-02  0.1169298E+00
         21   -1    0    0  503  502  0.00000000000E+00  0.00000000000E+00  0.24785282074E+03  0.24785282074E+03  0.00000000000E+00 0. -1.
         21   -1    0    0  501  503 -0.00000000000E+00 -0.00000000000E+00 -0.13104829701E+03  0.13104829701E+03  0.00000000000E+00 0. -1.
          6    2    1    2  501    0  0.40672160808E+02 -0.26733206491E+02  0.30164974121E+02  0.18127109796E+03  0.17198952380E+03 0.  0.
         24    2    3    3    0    0  0.15399319905E+02  0.50799449038E+02  0.21446589141E+02  0.99124099249E+02  0.80919143532E+02 0.  0.
         -6    2    1    2    0  502 -0.40672160808E+02  0.26733206491E+02  0.86639549606E+02  0.19763001979E+03  0.17082834709E+03 0.  0.
        -24    2    5    5    0    0 -0.38451618190E+02 -0.37419330912E+02  0.93349529936E+02  0.13291840799E+03  0.77938662914E+02 0.  0.
          5    1    3    3  501    0  0.25272840903E+02 -0.77532655529E+02  0.87183849801E+01  0.82146998712E+02  0.47000000000E+01 0. -1.
        -11    1    4    4    0    0 -0.13757135533E+02 -0.17342594006E+02  0.93307111413E+01  0.24022625072E+02  0.00000000000E+00 0.  1.
         12    1    4    4    0    0  0.29156455438E+02  0.68142043044E+02  0.12115878000E+02  0.75101474177E+02  0.00000000000E+00 0. -1.
         -5    1    5    5    0  502 -0.22205426184E+01  0.64152537403E+02 -0.67099803307E+01  0.64711611793E+02  0.47000000000E+01 0.  1.
         11    1    6    6    0    0 -0.20530145959E+02  0.16997010199E+01  0.87021712609E+02  0.89426809973E+02  0.00000000000E+00 0. -1.
        -12    1    6    6    0    0 -0.17921472231E+02 -0.39119031932E+02  0.63278173278E+01  0.43491598020E+02  0.00000000000E+00 0.  1.
</event>
<event>
12    1  0.8297444E-002  0.1919379E+03  0.7818608E-02  0.1156771E+00
         21   -1    0    0  501  502  0.00000000000E+00  0.00000000000E+00  0.21134383973E+03  0.21134383973E+03  0.00000000000E+00 0.  1.
         21   -1    0    0  502  503 -0.00000000000E+00 -0.00000000000E+00 -0.33023358817E+03  0.33023358817E+03  0.00000000000E+00 0.  1.
         -6    2    1    2    0  503  0.11633361131E+02 -0.84530457360E+02 -0.24564129266E+03  0.31173676657E+03  0.17192857139E+03 0.  0.
        -24    2    3    3    0    0 -0.45459097985E+02 -0.98326949199E+02 -0.17037630160E+03  0.21615015164E+03  0.77188635038E+02 0.  0.
          6    2    1    2  501    0 -0.11633361131E+02  0.84530457360E+02  0.12675154422E+03  0.22984066132E+03  0.17169753149E+03 0.  0.
         24    2    5    5    0    0  0.59003217826E+02  0.59921984897E+02  0.73909509513E+02  0.13813747797E+03  0.80915531492E+02 0.  0.
          5    1    5    5  501    0 -0.70636578958E+02  0.24608472463E+02  0.52842034706E+02  0.91703183346E+02  0.47000000000E+01 0. -1.
        -13    1    6    6    0    0  0.11968664779E+02  0.11056862015E+02  0.68148700479E+02  0.70069597624E+02  0.00000000000E+00 0.  1.
         14    1    6    6    0    0  0.47034553048E+02  0.48865122881E+02  0.57608090340E+01  0.68067880350E+02  0.00000000000E+00 0. -1.
         -5    1    3    3    0  503  0.57092459116E+02  0.13796491839E+02 -0.75264991054E+02  0.95586614928E+02  0.47000000000E+01 0.  1.
         11    1    4    4    0    0 -0.16344090275E+02 -0.17331253186E+01  0.18614510357E+01  0.16540798355E+02  0.00000000000E+00 0. -1.
        -12    1    4    4    0    0 -0.29115007710E+02 -0.96593823880E+02 -0.17223775264E+03  0.19960935329E+03  0.00000000000E+00 0.  1.
</event>
<event>
12    1  0.8297444E-002  0.1886825E+03  0.7818608E-02  0.1159819E+00
         21   -1    0    0  503  502  0.00000000000E+00  0.00000000000E+00  0.90412434525E+02  0.90412434525E+02  0.00000000000E+00 0. -1.
         21   -1    0    0  501  503 -0.00000000000E+00 -0.00000000000E+00 -0.81251756845E+03  0.81251756845E+03  0.00000000000E+00 0. -1.
          6    2    1    2  501    0  0.74469043188E+02  0.18952735542E+02 -0.68540491746E+03  0.71071137382E+03  0.17153982461E+03 0.  0.
         24    2    3    3    0    0  0.43855504808E+02  0.70109874946E+02 -0.55773025000E+03  0.56972501861E+03  0.81761024975E+02 0.  0.
         -6    2    1    2    0  502 -0.74469043188E+02 -0.18952735542E+02 -0.36700216471E+02  0.19221862916E+03  0.17232600189E+03 0.  0.
        -24    2    5    5    0    0 -0.11512960722E+03 -0.36133716537E+02 -0.25334593487E+02  0.14639576411E+03  0.78926587350E+02 0.  0.
          5    1    3    3  501    0  0.30613538380E+02 -0.51157139404E+02 -0.12767466746E+03  0.14098635521E+03  0.47000000000E+01 0. -1.
        -13    1    4    4    0    0  0.14097507366E+02 -0.10762315206E+02 -0.28815655295E+02  0.33836505917E+02  0.00000000000E+00 0.  1.
         14    1    4    4    0    0  0.29757997442E+02  0.80872190152E+02 -0.52891459470E+03  0.53588851270E+03  0.00000000000E+00 0. -1.
         -5    1    5    5    0  502  0.40660564035E+02  0.17180980995E+02 -0.11365622984E+02  0.45822865051E+02  0.47000000000E+01 0.  1.
         11    1    6    6    0    0 -0.45651322280E+02  0.69344524442E+01  0.22837053657E+02  0.51513696007E+02  0.00000000000E+00 0. -1.
        -12    1    6    6    0    0 -0.69478284943E+02 -0.43068168981E+02 -0.48171647143E+02  0.94882068098E+02  0.00000000000E+00 0.  1.
</event>
<event>
12    1  0.8297444E-002  0.1784609E+03  0.7818608E-02  0.1169416E+00
         21   -1    0    0  501  502  0.00000000000E+00  0.00000000000E+00  0.15152418348E+03  0.15152418348E+03  0.00000000000E+00 0.  1.
         21   -1    0    0  502  503 -0.00000000000E+00 -0.00000000000E+00 -0.20985911291E+03  0.20985911291E+03  0.00000000000E+00 0.  1.
         -6    2    1    2    0  503  0.28620352165E+02 -0.37659453261E+02 -0.35029589678E+02  0.18140705521E+03  0.17159279865E+03 0.  0.
        -24    2    3    3    0    0  0.32032033421E+02 -0.27858409437E+02  0.44316028598E+02  0.10124773155E+03  0.80529811948E+02 0.  0.
          6    2    1    2  501    0 -0.28620352165E+02  0.37659453261E+02 -0.23305339751E+02  0.17997624119E+03  0.17207832389E+03 0.  0.
         24    2    5    5    0    0  0.46756206643E+02  0.13647013120E+00 -0.21084312616E+02  0.95616162700E+02  0.80695358276E+02 0.  0.
          5    1    5    5  501    0 -0.75376558808E+02  0.37522983129E+02 -0.22210271352E+01  0.84360078487E+02  0.47000000000E+01 0. -1.
        -13    1    6    6    0    0 -0.16312714468E+02  0.17877226267E+02  0.56548875591E+01  0.24853121044E+02  0.00000000000E+00 0.  1.
         14    1    6    6    0    0  0.63068921111E+02 -0.17740756136E+02 -0.26739200175E+02  0.70763041656E+02  0.00000000000E+00 0. -1.
         -5    1    3    3    0  503 -0.34116812557E+01 -0.98010438231E+01 -0.79345618276E+02  0.80159323654E+02  0.47000000000E+01 0.  1.
         13    1    4    4    0    0 -0.24079062054E+02  0.63486473784E+01  0.79471035386E+01  0.26139300059E+02  0.00000000000E+00 0. -1.
        -14    1    4    4    0    0  0.56111095475E+02 -0.34207056816E+02  0.36368925060E+02  0.75108431493E+02  0.00000000000E+00 0.  1.
</event>
<event>
12    1  0.8297444E-002  0.1776349E+03  0.7818608E-02  0.1170380E+00
         21   -1    0    0  501  502  0.00000000000E+00  0.00000000000E+00  0.14757861160E+03  0.14757861160E+03  0.00000000000E+00 0. -1.
         21   -1    0    0  502  503 -0.00000000000E+00 -0.00000000000E+00 -0.36008260037E+03  0.36008260037E+03  0.00000000000E+00 0.  1.
         -6    2    1    2    0  503  0.29714088711E+02 -0.29071951003E+02 -0.26894182477E+03  0.32231020259E+03  0.17270221823E+03 0.  0.
        -24    2    3    3    0    0 -0.19959229762E+01 -0.53921846810E+02 -0.67977258880E+02  0.11729340107E+03  0.78900474887E+02 0.  0.
          6    2    1    2  501    0 -0.29714088711E+02  0.29071951003E+02  0.56437836002E+02  0.18535100938E+03  0.17158572768E+03 0.  0.
         24    2    5    5    0    0  0.31448695365E+02  0.36849815981E+02 -0.16601027481E+02  0.89652801882E+02  0.73587372516E+02 0.  0.
          5    1    5    5  501    0 -0.61162784077E+02 -0.77778649787E+01  0.73038863482E+02  0.95698207498E+02  0.47000000000E+01 0. -1.
        -11    1    6    6    0    0 -0.14731119183E+02  0.29644929069E+02 -0.25859115590E+02  0.42006208482E+02  0.00000000000E+00 0.  1.
         12    1    6    6    0    0  0.46179814548E+02  0.72048869117E+01  0.92580881099E+01  0.47646593400E+02  0.00000000000E+00 0. -1.
         -5    1    3    3    0  503  0.31710011687E+02  0.24849895807E+02 -0.20096456589E+03  0.20501680152E+03  0.47000000000E+01 0.  1.
         11    1    4    4    0    0 -0.26299271837E+02 -0.45261352894E+02 -0.74148995857E+02  0.90765165959E+02  0.00000000000E+00 0. -1.
        -12    1    4    4    0    0  0.24303348860E+02 -0.86604939162E+01  0.61717369771E+01  0.26528235109E+02  0.00000000000E+00 0.  1.
</event>
<event>
12    1  0.8297444E-002  0.2891264E+03  0.7818608E-02  0.1090825E+00
         21   -1    0    0  503  502  0.00000000000E+00  0.00000000000E+00  0.37471205483E+03  0.37471205483E+03  0.00000000000E+00 0. -1.
         21   -1    0    0  501  503 -0.00000000000E+00 -0.00000000000E+00 -0.33964435446E+03  0.33964435446E+03  0.00000000000E+00 0.  1.
          6    2    1    2  501    0 -0.73997049205E+02 -0.22050274911E+03  0.22687151133E+03  0.36751158946E+03  0.17174708171E+03 0.  0.
         24    2    3    3    0    0 -0.75686451816E+02 -0.86063621790E+02  0.58866209887E+02  0.15228007609E+03  0.81170221893E+02 0.  0.
         -6    2    1    2    0  502  0.73997049205E+02  0.22050274911E+03 -0.19180381096E+03  0.34684481984E+03  0.17150977084E+03 0.  0.
        -24    2    5    5    0    0  0.61584784632E+02  0.45082714263E+02 -0.94627683027E+02  0.14586834664E+03  0.80610417027E+02 0.  0.
          5    1    3    3  501    0  0.16894026115E+01 -0.13443912732E+03  0.16800530144E+03  0.21523151337E+03  0.47000000000E+01 0. -1.
        -11    1    4    4    0    0 -0.59874043269E+02 -0.21678465331E+02  0.57761630424E+02  0.85972454110E+02  0.00000000000E+00 0.  1.
         12    1    4    4    0    0 -0.15812408547E+02 -0.64385156459E+02  0.11045794632E+01  0.66307621976E+02  0.00000000000E+00 0. -1.
         -5    1    5    5    0  502  0.12412264573E+02  0.17542003485E+03 -0.97176127932E+02  0.20097647320E+03  0.47000000000E+01 0.  1.
         11    1    6    6    0    0  0.24116251243E+02  0.12185002798E+02  0.10914451350E+02  0.29140918233E+02  0.00000000000E+00 0. -1.
        -12    1    6    6    0    0  0.37468533389E+02  0.32897711465E+02 -0.10554213438E+03  0.11672742841E+03  0.00000000000E+00 0.  1.
</event>
<event>
12    1  0.8297444E-002  0.2302416E+03  0.7818608E-02  0.1126524E+00
         21   -1    0    0  503  502  0.00000000000E+00  0.00000000000E+00  0.88744150602E+03  0.88744150602E+03  0.00000000000E+00 0.  1.
         21   -1    0    0  501  503 -0.00000000000E+00 -0.00000000000E+00 -0.67324337616E+02  0.67324337616E+02  0.00000000000E+00 0.  1.
          6    2    1    2  501    0  0.25205577488E+02  0.15228089276E+03  0.24868932959E+03  0.33869688766E+03  0.17042419905E+03 0.  0.
         24    2    3    3    0    0 -0.42010465599E+02  0.12628823927E+03  0.18763646996E+03  0.24412862579E+03  0.81717455133E+02 0.  0.
         -6    2    1    2    0  502 -0.25205577488E+02 -0.15228089276E+03  0.57142783882E+03  0.61606895598E+03  0.17084025318E+03 0.  0.
        -24    2    5    5    0    0 -0.37310042207E+02 -0.61749323407E+02  0.45580362361E+03  0.46864598539E+03  0.81652300227E+02 0.  0.
          5    1    3    3  501    0  0.67216043087E+02  0.25992653486E+02  0.61052859626E+02  0.94568261864E+02  0.47000000000E+01 0. -1.
        -11    1    4    4    0    0  0.15916947781E+02  0.28604899443E+01  0.40099485739E+02  0.43237719481E+02  0.00000000000E+00 0.  1.
         12    1    4    4    0    0 -0.57927413381E+02  0.12342774933E+03  0.14753698422E+03  0.20089090631E+03  0.00000000000E+00 0. -1.
         -5    1    5    5    0  502  0.12104464719E+02 -0.90531569353E+02  0.11562421521E+03  0.14742297059E+03  0.47000000000E+01 0.  1.
         11    1    6    6    0    0  0.23911647350E+02 -0.34139943908E+02  0.16402539032E+03  0.16923838607E+03  0.00000000000E+00 0. -1.
        -12    1    6    6    0    0 -0.61221689557E+02 -0.27609379500E+02  0.29177823329E+03  0.29940759932E+03  0.00000000000E+00 0.  1.
</event>
<event>
12    1  0.8297444E-002  0.2475351E+03  0.7818608E-02  0.1114962E+00
         21   -1    0    0  501  502  0.00000000000E+00  0.00000000000E+00  0.84666629493E+02  0.84666629493E+02  0.00000000000E+00 0. -1.
         21   -1    0    0  502  503 -0.00000000000E+00 -0.00000000000E+00 -0.75119263028E+03  0.75119263028E+03  0.00000000000E+00 0. -1.
         -6    2    1    2    0  503 -0.86388986460E+02 -0.15276937142E+03 -0.41589843187E+03  0.48398878061E+03  0.17456258564E+03 0.  0.
        -24    2    3    3    0    0 -0.11794661264E+03 -0.77012108586E+02 -0.24523554875E+03  0.29456080930E+03  0.82360959808E+02 0.  0.
          6    2    1    2  501    0  0.86388986460E+02  0.15276937142E+03 -0.25062756892E+03  0.35187047916E+03  0.17377317968E+03 0.  0.
         24    2    5    5    0    0  0.42341504594E+02  0.71410233045E+01 -0.12908964277E+03  0.15708507435E+03  0.78535262711E+02 0.  0.
          5    1    5    5  501    0  0.44047481866E+02  0.14562834812E+03 -0.12153792615E+03  0.19478540481E+03  0.47000000000E+01 0. -1.
        -11    1    6    6    0    0 -0.66279965648E+01  0.68624089326E+01  0.74015112672E+01  0.12074989187E+02  0.00000000000E+00 0.  1.
         12    1    6    6    0    0  0.48969501159E+02  0.27861437182E+00 -0.13649115404E+03  0.14501008517E+03  0.00000000000E+00 0. -1.
         -5    1    3    3    0  503  0.31557626185E+02 -0.75757262834E+02 -0.17066288312E+03  0.18942797131E+03  0.47000000000E+01 0.  1.
         11    1    4    4    0    0 -0.56116977873E+02 -0.52685797450E+02 -0.19967463528E+03  0.21399735613E+03  0.00000000000E+00 0. -1.
        -12    1    4    4    0    0 -0.61829634772E+02 -0.24326311136E+02 -0.45560913472E+02  0.80563453165E+02  0.00000000000E+00 0.  1.
</event>
<event>
12    1  0.8297444E-002  0.2161006E+03  0.7818608E-02  0.1137072E+00
         21   -1    0    0  501  502  0.00000000000E+00  0.00000000000E+00  0.24881934781E+03  0.24881934781E+03  0.00000000000E+00 0.  1.
         21   -1    0    0  502  503 -0.00000000000E+00 -0.00000000000E+00 -0.23547064589E+03  0.23547064589E+03  0.00000000000E+00 0. -1.
         -6    2    1    2    0  503 -0.45334734761E+02  0.12016166398E+03  0.11704641630E+03  0.24576271547E+03  0.17379696512E+03 0.  0.
        -24    2    3    3    0    0 -0.92134441950E+02  0.65982142421E+02  0.59630598655E+02  0.15386984706E+03  0.85309571722E+02 0.  0.
          6    2    1    2  501    0  0.45334734761E+02 -0.12016166398E+03 -0.10369771438E+03  0.23852727823E+03  0.17218589613E+03 0.  0.
         24    2    5    5    0    0  0.46792219490E+02 -0.15356066753E+03 -0.78814492326E+02  0.19658824581E+03  0.81638371958E+02 0.  0.
          5    1    5    5  501    0 -0.14574847294E+01  0.33399003550E+02 -0.24883222059E+02  0.41939032415E+02  0.47000000000E+01 0. -1.
        -13    1    6    6    0    0  0.39671464034E+02 -0.83322278170E+02 -0.20661157886E+01  0.92307615788E+02  0.00000000000E+00 0.  1.
         14    1    6    6    0    0  0.71207554562E+01 -0.70238389355E+02 -0.76748376537E+02  0.10428063003E+03  0.00000000000E+00 0. -1.
         -5    1    3    3    0  503  0.46799707189E+02  0.54179521554E+02  0.57415817648E+02  0.91892868412E+02  0.47000000000E+01 0.  1.
         13    1    4    4    0    0 -0.87544421903E+02  0.82780123726E+02  0.63259265421E+02  0.13608199496E+03  0.00000000000E+00 0. -1.
        -14    1    4    4    0    0 -0.45900200467E+01 -0.16797981305E+02 -0.36286667667E+01  0.17787852104E+02  0.00000000000E+00 0.  1.
</event>
<event>
12    1  0.8297444E-002  0.2689756E+03  0.7818608E-02  0.1102168E+00
         21   -1    0    0  503  502  0.00000000000E+00  0.00000000000E+00  0.10480794826E+03  0.10480794826E+03  0.00000000000E+00 0. -1.
         21   -1    0    0  501  503 -0.00000000000E+00 -0.00000000000E+00 -0.70352646534E+03  0.70352646534E+03  0.00000000000E+00 0.  1.
          6    2    1    2  501    0  0.20330024202E+03  0.32970647005E+02 -0.36615351200E+03  0.45433054800E+03  0.17300231364E+03 0.  0.
         24    2    3    3    0    0  0.12285333756E+03 -0.36753447708E+02 -0.29175070272E+03  0.32436508393E+03  0.60419174678E+02 0.  0.
         -6    2    1    2    0  502 -0.20330024202E+03 -0.32970647005E+02 -0.23256500508E+03  0.35400386560E+03  0.16974746922E+03 0.  0.
        -24    2    5    5    0    0 -0.10159493403E+03  0.11118753723E+02 -0.44998743859E+02  0.13607948129E+03  0.77766194291E+02 0.  0.
          5    1    3    3  501    0  0.80446904462E+02  0.69724094714E+02 -0.74402809275E+02  0.12996546406E+03  0.47000000000E+01 0. -1.
        -11    1    4    4    0    0  0.38792444593E+02 -0.14214076801E+02 -0.16845665991E+03  0.17344895504E+03  0.00000000000E+00 0.  1.
         12    1    4    4    0    0  0.84060892964E+02 -0.22539370907E+02 -0.12329404281E+03  0.15091612889E+03  0.00000000000E+00 0. -1.
         -5    1    5    5    0  502 -0.10170530798E+03 -0.44089400728E+02 -0.18756626122E+03  0.21792438431E+03  0.47000000000E+01 0.  1.
         13    1    6    6    0    0 -0.95064834392E+02 -0.17725175599E+02 -0.23501553705E+02  0.99517976338E+02  0.00000000000E+00 0. -1.
        -14    1    6    6    0    0 -0.65300996424E+01  0.28843929322E+02 -0.21497190154E+02  0.36561504955E+02  0.00000000000E+00 0.  1.
</event>
<event>
12    1  0.8297444E-002  0.1806504E+03  0.7818608E-02  0.1167997E+00
         21   -1    0    0  501  502  0.00000000000E+00  0.00000000000E+00  0.46917897560E+03  0.46917897560E+03  0.00000000000E+00 0. -1.
         21   -1    0    0  502  503 -0.00000000000E+00 -0.00000000000E+00 -0.69734663879E+02  0.69734663879E+02  0.00000000000E+00 0.  1.
         -6    2    1    2    0  503  0.53392976764E+02 -0.40813442877E+01  0.15871392194E+03  0.23793910475E+03  0.16898947073E+03 0.  0.
        -24    2    3    3    0    0  0.37397791080E+02  0.55137194791E+02  0.55535431748E+02  0.11781178824E+03  0.79729092817E+02 0.  0.
          6    2    1    2  501    0 -0.53392976764E+02  0.40813442877E+01  0.24073038979E+03  0.30097453473E+03  0.17253139612E+03 0.  0.
         24    2    5    5    0    0  0.29449339936E+02  0.31741038840E+02  0.10343995585E+03  0.13819044032E+03  0.80759000501E+02 0.  0.
          5    1    5    5  501    0 -0.82842316700E+02 -0.27659694553E+02  0.13729043394E+03  0.16278409440E+03  0.47000000000E+01 0. -1.
        -13    1    6    6    0    0 -0.73351624583E+00  0.52113366261E+02  0.77841739508E+02  0.93678585593E+02  0.00000000000E+00 0.  1.
         14    1    6    6    0    0  0.30182856182E+02 -0.20372327420E+02  0.25598216339E+02  0.44511854731E+02  0.00000000000E+00 0. -1.
         -5    1    3    3    0  503  0.15995185684E+02 -0.59218539079E+02  0.10317849019E+03  0.12012731652E+03  0.47000000000E+01 0.  1.
         11    1    4    4    0    0  0.14900416678E+02  0.60329435329E+02  0.67548423892E+02  0.91784817669E+02  0.00000000000E+00 0. -1.
        -12    1    4    4    0    0  0.22497374401E+02 -0.51922405380E+01 -0.12012992144E+02  0.26026970569E+02  0.00000000000E+00 0.  1.
</event>
<event>
12    1  0.8297444E-002  0.1788017E+03  0.7818608E-02  0.1169176E+00
         21   -1    0    0  503  502  0.00000000000E+00  0.00000000000E+00  0.17764119265E+04  0.17764119265E+04  0.00000000000E+00 0. -1.
         21   -1    0    0  501  503 -0.00000000000E+00 -0.00000000000E+00 -0.25062545891E+02  0.25062545891E+02  0.00000000000E+00 0. -1.
          6    2    1    2  501    0  0.37710702228E+02 -0.31710034377E+02  0.39602720684E+03  0.43451996983E+03  0.17187912112E+03 0.  0.
         24    2    3    3    0    0  0.41263186910E+02  0.21478939785E+02  0.35591943819E+03  0.36764388871E+03  0.79494571971E+02 0.  0.
         -6    2    1    2    0  502 -0.37710702228E+02  0.31710034377E+02  0.13553221738E+04  0.13669545026E+04  0.17099354967E+03 0.  0.
        -24    2    5    5    0    0  0.18458943657E+02  0.58599047905E+02  0.10559331753E+04  0.10611213608E+04  0.84906364530E+02 0.  0.
          5    1    3    3  501    0 -0.35524846826E+01 -0.53188974162E+02  0.40107768647E+02  0.66876081118E+02  0.47000000000E+01 0. -1.
        -11    1    4    4    0    0  0.16254247015E+02  0.46181473903E+02  0.27638383365E+03  0.28068657357E+03  0.00000000000E+00 0.  1.
         12    1    4    4    0    0  0.25008939895E+02 -0.24702534118E+02  0.79535604542E+02  0.86957315141E+02  0.00000000000E+00 0. -1.
         -5    1    5    5    0  502 -0.56169645884E+02 -0.26889013528E+02  0.29938899853E+03  0.30583314177E+03  0.47000000000E+01 0.  1.
         11    1    6    6    0    0 -0.10521844826E+02 -0.41912520196E+01  0.58766589925E+03  0.58777502920E+03  0.00000000000E+00 0. -1.
        -12    1    6    6    0    0  0.28980788483E+02  0.62790299925E+02  0.46826727602E+03  0.47334633162E+03  0.00000000000E+00 0.  1.
</event>
<event>
12    1  0.8297444E-002  0.1801149E+03  0.7818608E-02  0.1168179E+00
         21   -1    0    0  503  502  0.00000000000E+00  0.00000000000E+00  0.13454421981E+03  0.13454421981E+03  0.00000000000E+00 0.  1.
         21   -1    0    0  501  503 -0.00000000000E+00 -0.00000000000E+00 -0.26162861428E+03  0.26162861428E+03  0.00000000000E+00 0.  1.
          6    2    1    2  501    0  0.38758318651E+02 -0.35895447112E+02 -0.12282579722E+03  0.21800813822E+03  0.17219373240E+03 0.  0.
         24    2    3    3    0    0 -0.20237410756E+02 -0.25104105278E+02 -0.13130122488E+03  0.15725559078E+03  0.80309029875E+02 0.  0.
         -6    2    1    2    0  502 -0.38758318651E+02  0.35895447112E+02 -0.42585972470E+01  0.17816469588E+03  0.17009947918E+03 0.  0.
        -24    2    5    5    0    0 -0.48387478601E+02 -0.27534736300E+02 -0.38818574480E+02  0.10514010471E+03  0.80299751584E+02 0.  0.
          5    1    3    3  501    0  0.58995729406E+02 -0.10791341834E+02  0.84754276551E+01  0.60752547442E+02  0.47000000000E+01 0. -1.
        -13    1    4    4    0    0  0.19494517013E+02 -0.39685172579E+02 -0.67742494900E+02  0.80894961100E+02  0.00000000000E+00 0.  1.
         14    1    4    4    0    0 -0.39731927768E+02  0.14581067301E+02 -0.63558729979E+02  0.76360629675E+02  0.00000000000E+00 0. -1.
         -5    1    5    5    0  502  0.96291599509E+01  0.63430183412E+02  0.34559977233E+02  0.73024591169E+02  0.47000000000E+01 0.  1.
         11    1    6    6    0    0 -0.21063476304E+02  0.28171711132E+02 -0.19150090943E+02  0.40050484707E+02  0.00000000000E+00 0. -1.
        -12    1    6    6    0    0 -0.27324002297E+02 -0.55706447432E+02 -0.19668483537E+02  0.65089620000E+02  0.00000000000E+00 0.  1.
</event>
<event>
12    1  0.8297444E-002  0.1806200E+03  0.7818608E-02  0.1167682E+00
         21   -1    0    0  501  502  0.00000000000E+00  0.00000000000E+00  0.13156329033E+04  0.13156329033E+04  0.00000000000E+00 0.  1.
         21   -1    0    0  502  503 -0.00000000000E+00 -0.00000000000E+00 -0.44660112556E+02  0.44660112556E+02  0.00000000000E+00 0.  1.
         -6    2    1    2    0  503  0.44848926425E+02  0.12890464576E+02  0.18073870241E+03  0.25551919998E+03  0.17448780110E+03 0.  0.
        -24    2    3    3    0    0 -0.90665408888E+01  0.55619675882E+02  0.56141931847E+02  0.11311446569E+03  0.80418998551E+02 0.  0.
          6    2    1    2  501    0 -0.44848926425E+02 -0.12890464576E+02  0.10902340884E+04  0.11047738159E+04  0.17244485088E+03 0.  0.
         24    2    5    5    0    0  0.23010907175E+02  0.34177201485E+02  0.68699400339E+03  0.69313686623E+03  0.82343012365E+02 0.  0.
          5    1    5    5  501    0 -0.67859833600E+02 -0.47067666061E+02  0.40324008497E+03  0.41163694967E+03  0.47000000000E+01 0. -1.
        -11    1    6    6    0    0  0.56273300188E+01  0.39571854273E+02  0.65583018483E+03  0.65704705298E+03  0.00000000000E+00 0.  1.
         12    1    6    6    0    0  0.17383577156E+02 -0.53946527879E+01  0.31163818564E+02  0.36089813258E+02  0.00000000000E+00 0. -1.
         -5    1    3    3    0  503  0.53915467314E+02 -0.42729211306E+02  0.12459677056E+03  0.14240473429E+03  0.47000000000E+01 0.  1.
         13    1    4    4    0    0  0.13522015891E+02  0.21141339177E+02  0.66105166113E+02  0.70708515207E+02  0.00000000000E+00 0. -1.
        -14    1    4    4    0    0 -0.22588556780E+02  0.34478336706E+02 -0.99632342656E+01  0.42405950484E+02  0.00000000000E+00 0.  1.
</event>
<event>
12    1  0.8297444E-002  0.1798191E+03  0.7818608E-02  0.1168511E+00
         21   -1    0    0  501  502  0.00000000000E+00  0.00000000000E+00  0.22419910988E+03  0.22419910988E+03  0.00000000000E+00 0.  1.
         21   -1    0    0  502  503 -0.00000000000E+00 -0.00000000000E+00 -0.18834564815E+03  0.18834564815E+03  0.00000000000E+00 0.  1.
         -6    2    1    2    0  503 -0.46470886687E+02  0.25206968840E+02 -0.83949801320E+02  0.19647136086E+03  0.16958328900E+03 0.  0.
        -24    2    3    3    0    0  0.36499960744E+02  0.31371126465E+02 -0.53522593095E+02  0.10775798327E+03  0.80191771881E+02 0.  0.
          6    2    1    2  501    0  0.46470886687E+02 -0.25206968840E+02  0.11980326305E+03  0.21607339717E+03  0.17187191900E+03 0.  0.
         24    2    5    5    0    0  0.57227705713E+02  0.40024362217E+02  0.41618381979E+02  0.11357558581E+03  0.79311815643E+02 0.  0.
          5    1    5    5  501    0 -0.10756819026E+02 -0.65231331057E+02  0.78184881071E+02  0.10249781137E+03  0.47000000000E+01 0. -1.
        -11    1    6    6    0    0  0.22488374583E+02 -0.20978498874E+02  0.28958260942E+02  0.42242221570E+02  0.00000000000E+00 0.  1.
         12    1    6    6    0    0  0.34739331130E+02  0.61002861091E+02  0.12660121037E+02  0.71333364236E+02  0.00000000000E+00 0. -1.
         -5    1    3    3    0  503 -0.82970847431E+02 -0.61641576252E+01 -0.30427208225E+02  0.88713377588E+02  0.47000000000E+01 0.  1.
         11    1    4    4    0    0  0.22074888967E+02 -0.14868198202E+02  0.95109307074E+01  0.28263436514E+02  0.00000000000E+00 0. -1.
        -12    1    4    4    0    0  0.14425071777E+02  0.46239324667E+02 -0.63033523803E+02  0.79494546759E+02  0.00000000000E+00 0.  1.
</event>
<event>
12    1  0.8297444E-002  0.2312169E+03  0.7818608E-02  0.1126004E+00
         21   -1    0    0  503  502  0.00000000000E+00  0.00000000000E+00  0.78551821525E+03  0.78551821525E+03  0.00000000000E+00 0. -1.
         21   -1    0    0  501  503 -0.00000000000E+00 -0.00000000000E+00 -0.81554986252E+02  0.81554986252E+02  0.00000000000E+00 0.  1.
          6    2    1    2  501    0  0.97486438057E+02 -0.11931489681E+03  0.17403637988E+03  0.28939576536E+03  0.17239952808E+03 0.  0.
         24    2    3    3    0    0  0.10382811915E+03 -0.74057443414E+02  0.18944619200E+03  0.24093953442E+03  0.76793335217E+02 0.  0.
         -6    2    1    2    0  502 -0.97486438057E+02  0.11931489681E+03  0.52992684912E+03  0.57767743614E+03  0.17073108855E+03 0.  0.
        -24    2    5    5    0    0 -0.13407680344E+03  0.80852734312E+02  0.38667942050E+03  0.42483729550E+03  0.80324339676E+02 0.  0.
          5    1    3    3  501    0 -0.63416810952E+01 -0.45257453398E+02 -0.15409812124E+02  0.48456230939E+02  0.47000000000E+01 0. -1.
        -13    1    4    4    0    0  0.22273769245E+02  0.36874956055E+01  0.25685610894E+01  0.22722586259E+02  0.00000000000E+00 0.  1.
         14    1    4    4    0    0  0.81554349907E+02 -0.77744939019E+02  0.18687763091E+03  0.21821694817E+03  0.00000000000E+00 0. -1.
         -5    1    5    5    0  502  0.36590365383E+02  0.38462162499E+02  0.14324742863E+03  0.15284014064E+03  0.47000000000E+01 0.  1.
         13    1    6    6    0    0 -0.56102952905E+02  0.37143844044E+02  0.26766513945E+03  0.27599245163E+03  0.00000000000E+00 0. -1.
        -14    1    6    6    0    0 -0.77973850535E+02  0.43708890268E+02  0.11901428104E+03  0.14884484388E+03  0.00000000000E+00 0.  1.
</event>
<event>
12    1  0.8297444E-002  0.1824004E+03  0.7818608E-02  0.1165745E+00
         21   -1    0    0  501  502  0.00000000000E+00  0.00000000000E+00  0.12943705101E+03  0.12943705101E+03  0.00000000000E+00 0.  1.
         21   -1    0    0  502  503 -0.00000000000E+00 -0.00000000000E+00 -0.28665405898E+03  0.28665405898E+03  0.00000000000E+00 0.  1.
         -6    2    1    2    0  503 -0.57795772983E+02 -0.17443483247E+02 -0.14689808070E+03  0.23339908153E+03  0.17103057816E+03 0.  0.
        -24    2    3    3    0    0 -0.77724202171E+02 -0.35088561834E+02 -0.41944633759E+02  0.12502100666E+03  0.81232019735E+02 0.  0.
          6    2    1    2  501    0  0.57795772983E+02  0.17443483247E+02 -0.10318927273E+02  0.18269202846E+03  0.17211993063E+03 0.  0.
         24    2    5    5    0    0  0.73477844734E+02  0.64524166608E+02 -0.28550355348E+02  0.12961667552E+03  0.80143608843E+02 0.  0.
          5    1    5    5  501    0 -0.15682071751E+02 -0.47080683362E+02  0.18231428075E+02  0.53075352941E+02  0.47000000000E+01 0. -1.
        -13    1    6    6    0    0  0.56533732491E+02 -0.27672648168E+01 -0.74624303756E+01  0.57091229896E+02  0.00000000000E+00 0.  1.
         14    1    6    6    0    0  0.16944112244E+02  0.67291431425E+02 -0.21087924972E+02  0.72525445622E+02  0.00000000000E+00 0. -1.
         -5    1    3    3    0  503  0.19928429188E+02  0.17645078587E+02 -0.10495344694E+03  0.10837807487E+03  0.47000000000E+01 0.  1.
         11    1    4    4    0    0  0.10424509518E+02 -0.27260140504E+02 -0.12573889666E+02  0.31778740698E+02  0.00000000000E+00 0. -1.
        -12    1    4    4    0    0 -0.88148711690E+02 -0.78284213291E+01 -0.29370744092E+02  0.93242265961E+02  0.00000000000E+00 0.  1.
</event>
<event>
12    1  0.8297444E-002  0.2094988E+03  0.7818608E-02  0.1142682E+00
         21   -1    0    0  503  502  0.00000000000E+00  0.00000000000E+00  0.98165935140E+03  0.98165935140E+03  0.00000000000E+00 0.  1.
         21   -1    0    0  501  503 -0.00000000000E+00 -0.00000000000E+00 -0.46856045870E+02  0.46856045870E+02  0.00000000000E+00 0.  1.
          6    2    1    2  501    0  0.55519104264E+02  0.10387308459E+03  0.33551648487E+03  0.39366546459E+03  0.16890588431E+03 0.  0.
         24    2    3    3    0    0  0.60692396559E+02  0.12958106861E+03  0.32707558720E+03  0.36571904892E+03  0.79354663773E+02 0.  0.
         -6    2    1    2    0  502 -0.55519104264E+02 -0.10387308459E+03  0.59928682066E+03  0.63484993267E+03  0.17325632732E+03 0.  0.
        -24    2    5    5    0    0 -0.23313090262E+01 -0.80579108876E+01  0.38532652239E+03  0.39441160730E+03  0.83747371207E+02 0.  0.
          5    1    3    3  501    0 -0.51732922953E+01 -0.25707984018E+02  0.84408976707E+01  0.27946415673E+02  0.47000000000E+01 0. -1.
        -13    1    4    4    0    0 -0.14874617478E+02  0.56491444197E+02  0.12213266617E+03  0.13538436268E+03  0.00000000000E+00 0.  1.
         14    1    4    4    0    0  0.75567014037E+02  0.73089624410E+02  0.20494292103E+03  0.23033468624E+03  0.00000000000E+00 0. -1.
         -5    1    5    5    0  502 -0.53187795237E+02 -0.95815173701E+02  0.21396029827E+03  0.24043832537E+03  0.47000000000E+01 0.  1.
         13    1    6    6    0    0 -0.21754389658E+02 -0.27606959440E+02  0.33661651706E+03  0.33844656482E+03  0.00000000000E+00 0. -1.
        -14    1    6    6    0    0  0.19423080632E+02  0.19549048552E+02  0.48710005326E+02  0.55965042476E+02  0.00000000000E+00 0.  1.
</event>
<event>
12    1  0.8297444E-002  0.2026699E+03  0.7818608E-02  0.1148435E+00
         21   -1    0    0  501  502  0.00000000000E+00  0.00000000000E+00  0.78852128038E+02  0.78852128038E+02  0.00000000000E+00 0.  1.
         21   -1    0    0  502  503 -0.00000000000E+00 -0.00000000000E+00 -0.52555004824E+03  0.52555004824E+03  0.00000000000E+00 0. -1.
         -6    2    1    2    0  503  0.98297294518E+02 -0.38324478022E+01 -0.27361572890E+03  0.33788291815E+03  0.17211116614E+03 0.  0.
        -24    2    3    3    0    0  0.11621054214E+03 -0.49175737395E+02 -0.20486100756E+03  0.25346609484E+03  0.79711263693E+02 0.  0.
          6    2    1    2  501    0 -0.98297294518E+02  0.38324478022E+01 -0.17308219130E+03  0.26651925813E+03  0.17719487645E+03 0.  0.
         24    2    5    5    0    0 -0.10442984956E+03 -0.19048300219E+01 -0.45529905060E+02  0.13860444150E+03  0.78923995662E+02 0.  0.
          5    1    5    5  501    0  0.61325550438E+01  0.57372778241E+01 -0.12755228624E+03  0.12791481663E+03  0.47000000000E+01 0. -1.
        -13    1    6    6    0    0 -0.54982723286E+02  0.37825925751E+02 -0.15960924162E+02  0.68619615410E+02  0.00000000000E+00 0.  1.
         14    1    6    6    0    0 -0.49447126275E+02 -0.39730755773E+02 -0.29568980898E+02  0.69984826088E+02  0.00000000000E+00 0. -1.
         -5    1    3    3    0  503 -0.17913247626E+02  0.45343289593E+02 -0.68754721336E+02  0.84416823310E+02  0.47000000000E+01 0.  1.
         13    1    4    4    0    0  0.69767218249E+02  0.21464186921E-01 -0.15321112301E+03  0.16834819101E+03  0.00000000000E+00 0. -1.
        -14    1    4    4    0    0  0.46443323895E+02 -0.49197201582E+02 -0.51649884559E+02  0.85117903833E+02  0.00000000000E+00 0.  1.
</event>
<event>
12    1  0.8297444E-002  0.2182117E+03  0.7818608E-02  0.1137068E+00
         21   -1    0    0  501  502  0.00000000000E+00  0.00000000000E+00  0.86315062508E+02  0.86315062508E+02  0.00000000000E+00 0. -1.
         21   -1    0    0  502  503 -0.00000000000E+00 -0.00000000000E+00 -0.12790233415E+04  0.12790233415E+04  0.00000000000E+00 0. -1.
         -6    2    1    2    0  503  0.53397642795E+02 -0.10558283986E+03 -0.11250115587E+04  0.11459787768E+04  0.18335022585E+03 0.  0.
        -24    2    3    3    0    0  0.18568685344E+02 -0.14357528965E+03 -0.91067073822E+03  0.92547807420E+03  0.78929161297E+02 0.  0.
          6    2    1    2  501    0 -0.53397642795E+02  0.10558283986E+03 -0.67696720332E+02  0.21935962726E+03  0.17186260733E+03 0.  0.
         24    2    5    5    0    0  0.15933747608E+01  0.78713636616E+02  0.18479811320E+02  0.11355579603E+03  0.79718504460E+02 0.  0.
          5    1    5    5  501    0 -0.54991017555E+02  0.26869203243E+02 -0.86176531652E+02  0.10580383123E+03  0.47000000000E+01 0. -1.
        -11    1    6    6    0    0  0.20057051914E+02  0.45975747214E+02 -0.25031145138E+02  0.56059012570E+02  0.00000000000E+00 0.  1.
         12    1    6    6    0    0 -0.18463677153E+02  0.32737889402E+02  0.43510956458E+02  0.57496783461E+02  0.00000000000E+00 0. -1.
         -5    1    3    3    0  503  0.34828957451E+02  0.37992449793E+02 -0.21434082047E+03  0.22050070258E+03  0.47000000000E+01 0.  1.
         11    1    4    4    0    0  0.48036618927E+02 -0.68840971980E+02 -0.50505985385E+03  0.51198833204E+03  0.00000000000E+00 0. -1.
        -12    1    4    4    0    0 -0.29467933583E+02 -0.74734317673E+02 -0.40561088438E+03  0.41348974216E+03  0.00000000000E+00 0.  1.
</event>
<event>
12    1  0.8297444E-002  0.1734446E+03  0.7818608E-02  0.1175152E+00
         21   -1    0    0  501  502  0.00000000000E+00  0.00000000000E+00  0.53192823353E+03  0.53192823353E+03  0.00000000000E+00 0.  1.
         21   -1    0    0  502  503 -0.00000000000E+00 -0.00000000000E+00 -0.10635271102E+03  0.10635271102E+03  0.00000000000E+00 0.  1.
         -6    2    1    2    0  503 -0.92687446249E+01  0.22408270647E+02 -0.68613752748E+01  0.17358027862E+03  0.17174106799E+03 0.  0.
        -24    2    3    3    0    0 -0.38678684797E+01 -0.50743590573E+02 -0.15937347076E+02  0.99520657180E+02  0.84026720649E+02 0.  0.
          6    2    1    2  501    0  0.92687446249E+01 -0.22408270647E+02  0.43243689779E+03  0.46470066593E+03  0.16839536255E+03 0.  0.
         24    2    5    5    0    0 -0.12295620343E+02 -0.53672127127E+02  0.14318498669E+03  0.17292813701E+03  0.79814288488E+02 0.  0.
          5    1    5    5  501    0  0.21564364968E+02  0.31263856480E+02  0.28925191110E+03  0.29177252892E+03  0.47000000000E+01 0. -1.
        -13    1    6    6    0    0  0.13541126282E+02 -0.38604775917E+02  0.13620345160E+03  0.14221487634E+03  0.00000000000E+00 0.  1.
         14    1    6    6    0    0 -0.25836746625E+02 -0.15067351210E+02  0.69815350844E+01  0.30713260667E+02  0.00000000000E+00 0. -1.
         -5    1    3    3    0  503 -0.54008761452E+01  0.73151861220E+02  0.90759718012E+01  0.74059621436E+02  0.47000000000E+01 0.  1.
         13    1    4    4    0    0 -0.71965614261E+00 -0.18791659675E+02  0.34754742620E+02  0.39516281617E+02  0.00000000000E+00 0. -1.
        -14    1    4    4    0    0 -0.31482123371E+01 -0.31951930898E+02 -0.50692089696E+02  0.60004375563E+02  0.00000000000E+00 0.  1.
</event>
<event>
12    1  0.8297444E-002  0.2022678E+03  0.7818608E-02  0.1148019E+00
         21   -1    0    0  501  502  0.00000000000E+00  0.00000000000E+00  0.46065268385E+03  0.46065268385E+03  0.00000000000E+00 0.  1.
         21   -1    0    0  502  503 -0.00000000000E+00 -0.00000000000E+00 -0.93158804458E+02  0.93158804458E+02  0.00000000000E+00 0. -1.
         -6    2    1    2    0  503  0.12593417577E+02 -0.10422248600E+03  0.24571875811E+03  0.31771520659E+03  0.17188462310E+03 0.  0.
        -24    2    3    3    0    0 -0.69169163173E+02 -0.57699053387E+02  0.14673516282E+03  0.18107922477E+03  0.56079619629E+02 0.  0.
          6    2    1    2  501    0 -0.12593417577E+02  0.10422248600E+03  0.12177512129E+03  0.23609628172E+03  0.17289116034E+03 0.  0.
         24    2    5    5    0    0  0.22392186306E+01  0.60028958998E+02  0.14800562664E+03  0.18240080391E+03  0.88067574809E+02 0.  0.
          5    1    5    5  501    0 -0.14832636208E+02  0.44193527001E+02 -0.26230505354E+02  0.53695477806E+02  0.47000000000E+01 0. -1.
        -11    1    6    6    0    0 -0.24538667210E+02  0.50417843380E+02  0.14288471597E+03  0.15349315026E+03  0.00000000000E+00 0.  1.
         12    1    6    6    0    0  0.26777885840E+02  0.96111156174E+01  0.51209106685E+01  0.28907653650E+02  0.00000000000E+00 0. -1.
         -5    1    3    3    0  503  0.81762580751E+02 -0.46523432611E+02  0.98983595281E+02  0.13663598182E+03  0.47000000000E+01 0.  1.
         11    1    4    4    0    0 -0.27187426078E+02  0.53326666539E+01  0.58983140647E+02  0.65165975408E+02  0.00000000000E+00 0. -1.
        -12    1    4    4    0    0 -0.41981737095E+02 -0.63031720041E+02  0.87752022178E+02  0.11591324936E+03  0.00000000000E+00 0.  1.
</event>
<event>
12    1  0.8297444E-002  0.1777095E+03  0.7818608E-02  0.1170903E+00
         21   -1    0    0  503  502  0.00000000000E+00  0.00000000000E+00  0.32154163133E+02  0.32154163133E+02  0.00000000000E+00 0. -1.
         21   -1    0    0  501  503 -0.00000000000E+00 -0.00000000000E+00 -0.98929570027E+03  0.98929570027E+03  0.00000000000E+00 0. -1.
          6    2    1    2  501    0 -0.35426840823E+02  0.12333146328E+01 -0.56638337572E+03  0.59360828877E+03  0.17413813509E+03 0.  0.
         24    2    3    3    0    0  0.33823088191E+02 -0.42766283102E+02 -0.30501076387E+03  0.31962060749E+03  0.78439852056E+02 0.  0.
         -6    2    1    2    0  502  0.35426840823E+02 -0.12333146328E+01 -0.39075816142E+03  0.42784157463E+03  0.17058689912E+03 0.  0.
        -24    2    5    5    0    0 -0.61559190375E+01 -0.25762651157E+01 -0.75292798635E+02  0.10960987516E+03  0.79377495077E+02 0.  0.
          5    1    3    3  501    0 -0.69249929014E+02  0.43999597735E+02 -0.26137261185E+03  0.27398768128E+03  0.47000000000E+01 0. -1.
        -13    1    4    4    0    0  0.55559738752E+01 -0.58907181692E+02 -0.23621431193E+03  0.24351206553E+03  0.00000000000E+00 0.  1.
         14    1    4    4    0    0  0.28267114316E+02  0.16140898589E+02 -0.68796451943E+02  0.76108541958E+02  0.00000000000E+00 0. -1.
         -5    1    5    5    0  502  0.41582759861E+02  0.13429504829E+01 -0.31546536278E+03  0.31823169947E+03  0.47000000000E+01 0.  1.
         11    1    6    6    0    0 -0.17084537066E+02 -0.37678354968E+02 -0.50428856844E+02  0.65227367282E+02  0.00000000000E+00 0. -1.
        -12    1    6    6    0    0  0.10928618029E+02  0.35102089853E+02 -0.24863941791E+02  0.44382507877E+02  0.00000000000E+00 0.  1.
</event>
<event>
12    1  0.8297444E-002  0.1952255E+03  0.7818608E-02  0.1154018E+00
         21   -1    0    0  501  502  0.00000000000E+00  0.00000000000E+00  0.35728714014E+03  0.35728714014E+03  0.00000000000E+00 0. -1.
         21   -1    0    0  502  503 -0.00000000000E+00 -0.00000000000E+00 -0.13278868303E+03  0.13278868303E+03  0.00000000000E+00 0. -1.
         -6    2    1    2    0  503  0.88431805890E+02  0.20099039864E+02  0.24132755314E+01  0.19438200607E+03  0.17191388743E+03 0.  0.
        -24    2    3    3    0    0 -0.12939046899E+02  0.33113515622E+02  0.24756982072E+02  0.89659718110E+02  0.78498618069E+02 0.  0.
          6    2    1    2  501    0 -0.88431805890E+02 -0.20099039864E+02  0.22208518158E+03  0.29569381710E+03  0.17288392030E+03 0.  0.
         24    2    5    5    0    0 -0.75997895830E+02  0.10257553753E+02  0.52490457460E+02  0.12289166045E+03  0.80412775749E+02 0.  0.
          5    1    5    5  501    0 -0.12433910060E+02 -0.30356593617E+02  0.16959472412E+03  0.17280215665E+03  0.47000000000E+01 0. -1.
        -13    1    6    6    0    0 -0.39484736425E+02 -0.18540514558E+02 -0.10237454008E+02  0.44806255760E+02  0.00000000000E+00 0.  1.
         14    1    6    6    0    0 -0.36513159405E+02  0.28798068311E+02  0.62727911468E+02  0.78085404688E+02  0.00000000000E+00 0. -1.
         -5    1    3    3    0  503  0.10137085279E+03 -0.13014475758E+02 -0.22343706541E+02  0.10472228796E+03  0.47000000000E+01 0.  1.
         11    1    4    4    0    0  0.22850803598E+02  0.15802662753E+02 -0.16541953780E+02  0.32334495667E+02  0.00000000000E+00 0. -1.
        -12    1    4    4    0    0 -0.35789850497E+02  0.17310852869E+02  0.41298935852E+02  0.57325222444E+02  0.00000000000E+00 0.  1.
</event>
<event>
12    1  0.8297444E-002  0.1934499E+03  0.7818608E-02  0.1155770E+00
         21   -1    0    0  501  502  0.00000000000E+00  0.00000000000E+00  0.65485407339E+03  0.65485407339E+03  0.00000000000E+00 0.  1.
         21   -1    0    0  502  503 -0.00000000000E+00 -0.00000000000E+00 -0.99071513852E+02  0.99071513852E+02  0.00000000000E+00 0.  1.
         -6    2    1    2    0  503  0.89663768961E+02 -0.64812649341E+01  0.52388652618E+03  0.55786379078E+03  0.16933197718E+03 0.  0.
        -24    2    3    3    0    0  0.11655479830E+03  0.19255070994E+02  0.31748969448E+03  0.34808479140E+03  0.80047093265E+02 0.  0.
          6    2    1    2  501    0 -0.89663768961E+02  0.64812649341E+01  0.31896033360E+02  0.19606179646E+03  0.17129294447E+03 0.  0.
         24    2    5    5    0    0 -0.66772827934E+02 -0.52862830535E+02 -0.18575682313E+02  0.11472791095E+03  0.74594558620E+02 0.  0.
          5    1    5    5  501    0 -0.22890941027E+02  0.59344095470E+02  0.50471715674E+02  0.81333885504E+02  0.47000000000E+01 0. -1.
        -13    1    6    6    0    0 -0.49547365659E+02  0.30992866736E+01 -0.25423861060E+02  0.55775619520E+02  0.00000000000E+00 0.  1.
         14    1    6    6    0    0 -0.17225462275E+02 -0.55962117209E+02  0.68481787463E+01  0.58952291433E+02  0.00000000000E+00 0. -1.
         -5    1    3    3    0  503 -0.26891029337E+02 -0.25736335929E+02  0.20639683170E+03  0.20977899938E+03  0.47000000000E+01 0.  1.
         11    1    4    4    0    0  0.61206943491E+02  0.49130585140E+02  0.15247297458E+03  0.17148793633E+03  0.00000000000E+00 0. -1.
        -12    1    4    4    0    0  0.55347854808E+02 -0.29875514145E+02  0.16501671989E+03  0.17659685507E+03  0.00000000000E+00 0.  1.
</event>
<event>
12    1  0.8297444E-002  0.1928070E+03  0.7818608E-02  0.1156012E+00
         21   -1    0    0  501  502  0.00000000000E+00  0.00000000000E+00  0.38255165727E+02  0.38255165727E+02  0.00000000000E+00 0.  1.
         21   -1    0    0  502  503 -0.00000000000E+00 -0.00000000000E+00 -0.11549907294E+04  0.11549907294E+04  0.00000000000E+00 0.  1.
         -6    2    1    2    0  503  0.51094980140E+02  0.69196011551E+02 -0.31954509757E+03  0.37307081463E+03  0.17226136634E+03 0.  0.
        -24    2    3    3    0    0  0.12581986865E+02 -0.24865597817E+02 -0.15845507196E+03  0.18253755412E+03  0.86228443599E+02 0.  0.
          6    2    1    2  501    0 -0.51094980140E+02 -0.69196011551E+02 -0.79719046611E+03  0.82017508051E+03  0.17255647894E+03 0.  0.
         24    2    5    5    0    0 -0.58819611755E+02 -0.90883982169E+02 -0.39402408540E+03  0.41632454065E+03  0.79696288103E+02 0.  0.
          5    1    5    5  501    0  0.77246316158E+01  0.21687970618E+02 -0.40316638072E+03  0.40385053986E+03  0.47000000000E+01 0. -1.
        -11    1    6    6    0    0 -0.30026880975E+02 -0.81597589549E+02 -0.36189683114E+03  0.37219497121E+03  0.00000000000E+00 0.  1.
         12    1    6    6    0    0 -0.28792730780E+02 -0.92863926203E+01 -0.32127254251E+02  0.44129569445E+02  0.00000000000E+00 0. -1.
         -5    1    3    3    0  503  0.38512993275E+02  0.94061609368E+02 -0.16109002561E+03  0.19053326051E+03  0.47000000000E+01 0.  1.
         11    1    4    4    0    0 -0.32998730390E+02 -0.23077039501E+02 -0.45725626971E+02  0.60928637941E+02  0.00000000000E+00 0. -1.
        -12    1    4    4    0    0  0.45580717255E+02 -0.17885583157E+01 -0.11272944499E+03  0.12160891618E+03  0.00000000000E+00 0.  1.
</event>
<event>
12    1  0.8297444E-002  0.1794859E+03  0.7818608E-02  0.1169513E+00
         21   -1    0    0  501  502  0.00000000000E+00  0.00000000000E+00  0.74066872770E+02  0.74066872770E+02  0.00000000000E+00 0. -1.
         21   -1    0    0  502  503 -0.00000000000E+00 -0.00000000000E+00 -0.71936058557E+03  0.71936058557E+03  0.00000000000E+00 0. -1.
         -6    2    1    2    0  503 -0.14438783328E+02 -0.31175127346E+02 -0.57984911492E+03  0.60699273288E+03  0.17616700788E+03 0.  0.
        -24    2    3    3    0    0  0.16888325385E+02  0.17642463241E+02 -0.76216520106E+02  0.10000907885E+03  0.59969874709E+02 0.  0.
          6    2    1    2  501    0  0.14438783328E+02  0.31175127346E+02 -0.65444597881E+02  0.18643472546E+03  0.17115649107E+03 0.  0.
         24    2    5    5    0    0  0.44684640210E+02  0.16013951122E+02 -0.91389489031E+02  0.14354066410E+03  0.99993599016E+02 0.  0.
          5    1    5    5  501    0 -0.30245856882E+02  0.15161176224E+02  0.25944891150E+02  0.42894061358E+02  0.47000000000E+01 0. -1.
        -13    1    6    6    0    0  0.23382653389E+01 -0.33514396866E+02 -0.65131562949E+02  0.73285761061E+02  0.00000000000E+00 0.  1.
         14    1    6    6    0    0  0.42346374871E+02  0.49528347988E+02 -0.26257926082E+02  0.70254903041E+02  0.00000000000E+00 0. -1.
         -5    1    3    3    0  503 -0.31327108714E+02 -0.48817590588E+02 -0.50363259482E+03  0.50698365403E+03  0.47000000000E+01 0.  1.
         13    1    4    4    0    0  0.16845627656E+02 -0.20060081599E+02 -0.39393790604E+02  0.47308062559E+02  0.00000000000E+00 0. -1.
        -14    1    4    4    0    0  0.42697729187E-01  0.37702544841E+02 -0.36822729502E+02  0.52701016295E+02  0.00000000000E+00 0.  1.
</event>
<event>
12    1  0.8297444E-002  0.2031227E+03  0.7818608E-02  0.1147349E+00
         21   -1    0    0  503  502  0.00000000000E+00  0.00000000000E+00  0.76577778312E+03  0.76577778312E+03  0.00000000000E+00 0.  1.
         21   -1    0    0  501  503 -0.00000000000E+00 -0.00000000000E+00 -0.77040040493E+02  0.77040040493E+02  0.00000000000E+00 0. -1.
          6    2    1    2  501    0  0.11028898606E+02 -0.10837648608E+03  0.11254043233E+03  0.23221584692E+03  0.17144022665E+03 0.  0.
         24    2    3    3    0    0 -0.12893976923E+01 -0.44683063139E+01 -0.14083948118E+01  0.77441574342E+02  0.77288974329E+02 0.  0.
         -6    2    1    2    0  502 -0.11028898606E+02  0.10837648608E+03  0.57619731030E+03  0.61060197669E+03  0.17018911307E+03 0.  0.
        -24    2    5    5    0    0 -0.16745224142E+01  0.94801905662E+02  0.20952757891E+03  0.24353174431E+03  0.80098057522E+02 0.  0.
          5    1    3    3  501    0  0.12318296298E+02 -0.10390817976E+03  0.11394882714E+03  0.15477427258E+03  0.47000000000E+01 0. -1.
        -11    1    4    4    0    0  0.35974449666E+02 -0.11872841030E+02  0.70138110379E+01  0.38526859828E+02  0.00000000000E+00 0.  1.
         12    1    4    4    0    0 -0.37263847359E+02  0.74045347158E+01 -0.84222058497E+01  0.38914714514E+02  0.00000000000E+00 0. -1.
         -5    1    5    5    0  502 -0.93543761916E+01  0.13574580415E+02  0.36666973139E+03  0.36707023239E+03  0.47000000000E+01 0.  1.
         11    1    6    6    0    0 -0.20365821817E+02  0.24205374763E+02  0.13593551807E+02  0.34430386528E+02  0.00000000000E+00 0. -1.
        -12    1    6    6    0    0  0.18691299403E+02  0.70596530899E+02  0.19593402710E+03  0.20910135778E+03  0.00000000000E+00 0.  1.
</event>
<event>
12    1  0.8297444E-002  0.1977858E+03  0.7818608E-02  0.1151674E+00
         21   -1    0    0  501  502  0.00000000000E+00  0.00000000000E+00  0.79509521387E+03  0.79509521387E+03  0.00000000000E+00 0. -1.
         21   -1    0    0  502  503 -0.00000000000E+00 -0.00000000000E+00 -0.61027808923E+02  0.61027808923E+02  0.00000000000E+00 0. -1.
         -6    2    1    2    0  503  0.67220914050E+02  0.70415475399E+02  0.17790897276E+03  0.26584221130E+03  0.17188219296E+03 0.  0.
        -24    2    3    3    0    0  0.89747255110E+02  0.40830576975E+02  0.56150228911E+02  0.13844525701E+03  0.79325501368E+02 0.  0.
          6    2    1    2  501    0 -0.67220914050E+02 -0.70415475399E+02  0.55615843218E+03  0.59028081149E+03  0.17216923148E+03 0.  0.
         24    2    5    5    0    0 -0.18805806418E+02 -0.81966328055E+02  0.50551646928E+03  0.51911801749E+03  0.82852145869E+02 0.  0.
          5    1    5    5  501    0 -0.48415107632E+02  0.11550852656E+02  0.50641962898E+02  0.71162794002E+02  0.47000000000E+01 0. -1.
        -11    1    6    6    0    0  0.26803922938E+02 -0.40197407837E+01  0.14095340831E+03  0.14353561201E+03  0.00000000000E+00 0.  1.
         12    1    6    6    0    0 -0.45609729356E+02 -0.77946587271E+02  0.36456306097E+03  0.37558240547E+03  0.00000000000E+00 0. -1.
         -5    1    3    3    0  503 -0.22526341060E+02  0.29584898424E+02  0.12175874385E+03  0.12739695428E+03  0.47000000000E+01 0.  1.
         11    1    4    4    0    0  0.97405291980E+02  0.53766596916E+02  0.52234173945E+02  0.12291072686E+03  0.00000000000E+00 0. -1.
        -12    1    4    4    0    0 -0.76580368708E+01 -0.12936019941E+02  0.39160549659E+01  0.15534530154E+02  0.00000000000E+00 0.  1.
</event>
<event>
12    1  0.8297444E-002  0.1977681E+03  0.7818608E-02  0.1151728E+00
         21   -1    0    0  501  502  0.00000000000E+00  0.00000000000E+00  0.43569985631E+03  0.43569985631E+03  0.00000000000E+00 0.  1.
         21   -1    0    0  502  503 -0.00000000000E+00 -0.00000000000E+00 -0.11288552705E+03  0.11288552705E+03  0.00000000000E+00 0.  1.
         -6    2    1    2    0  503  0.95030255267E+02 -0.10814601570E+02  0.36898484046E+02  0.20118083729E+03  0.17310264627E+03 0.  0.
        -24    2    3    3    0    0  0.78051087247E+01  0.39037334031E+02  0.45371235442E+02  0.10024858680E+03  0.80039971139E+02 0.  0.
          6    2    1    2  501    0 -0.95030255267E+02  0.10814601570E+02  0.28591584521E+03  0.34740454607E+03  0.17261037936E+03 0.  0.
         24    2    5    5    0    0  0.85129300491E+01 -0.27529195283E+02  0.11970773033E+03  0.14780829001E+03  0.81774221623E+02 0.  0.
          5    1    5    5  501    0 -0.10354318532E+03  0.38343796853E+02  0.16620811488E+03  0.19959625606E+03  0.47000000000E+01 0. -1.
        -11    1    6    6    0    0 -0.75118017241E+01  0.27394570971E+02  0.51198677486E+02  0.58550783599E+02  0.00000000000E+00 0.  1.
         12    1    6    6    0    0  0.16024731773E+02 -0.54923766254E+02  0.68509052848E+02  0.89257506407E+02  0.00000000000E+00 0. -1.
         -5    1    3    3    0  503  0.87225146543E+02 -0.49851935601E+02 -0.84727513958E+01  0.10093225049E+03  0.47000000000E+01 0.  1.
         11    1    4    4    0    0  0.17589024911E+02  0.39367325028E+02 -0.97982790865E+01  0.44217263034E+02  0.00000000000E+00 0. -1.
        -12    1    4    4    0    0 -0.97839161860E+01 -0.32999099636E+00  0.55169514528E+02  0.56031323769E+02  0.00000000000E+00 0.  1.
</event>
<event>
12    1  0.8297444E-002  0.2025951E+03  0.7818608E-02  0.1147657E+00
         21   -1    0    0  503  502  0.00000000000E+00  0.00000000000E+00  0.33405382736E+03  0.33405382736E+03  0.00000000000E+00 0. -1.
         21   -1    0    0  501  503 -0.00000000000E+00 -0.00000000000E+00 -0.25402755107E+03  0.25402755107E+03  0.00000000000E+00 0. -1.
          6    2    1    2  501    0  0.87573684045E+02  0.59316852687E+02 -0.17150051666E+03  0.26510999262E+03  0.17228825213E+03 0.  0.
         24    2    3    3    0    0  0.22870198473E-02 -0.87581773832E+01 -0.11629796849E+03  0.14112462808E+03  0.79462176529E+02 0.  0.
         -6    2    1    2    0  502 -0.87573684045E+02 -0.59316852687E+02  0.25152679294E+03  0.32297138581E+03  0.17279221433E+03 0.  0.
        -24    2    5    5    0    0 -0.70132356144E+02  0.47978487564E+01  0.66436907918E+02  0.12626030224E+03  0.81155618768E+02 0.  0.
          5    1    3    3  501    0  0.87571397026E+02  0.68075030071E+02 -0.55202548169E+02  0.12398536454E+03  0.47000000000E+01 0. -1.
        -13    1    4    4    0    0  0.33620210401E+02 -0.24682563874E+02 -0.72695055711E+02  0.83810015103E+02  0.00000000000E+00 0.  1.
         14    1    4    4    0    0 -0.33617923381E+02  0.15924386491E+02 -0.43602912781E+02  0.57314612975E+02  0.00000000000E+00 0. -1.
         -5    1    5    5    0  502 -0.17441327901E+02 -0.64114701444E+02  0.18508988502E+03  0.19671108357E+03  0.47000000000E+01 0.  1.
         13    1    6    6    0    0 -0.57998014184E+02 -0.27081392166E+02  0.17054152025E+02  0.66242098036E+02  0.00000000000E+00 0. -1.
        -14    1    6    6    0    0 -0.12134341960E+02  0.31879240922E+02  0.49382755893E+02  0.60018204207E+02  0.00000000000E+00 0.  1.
</event>
<event>
12    1  0.8297444E-002  0.1952610E+03  0.7818608E-02  0.1154262E+00
         21   -1    0    0  503  502  0.00000000000E+00  0.00000000000E+00  0.31533983922E+03  0.31533983922E+03  0.00000000000E+00 0. -1.
         21   -1    0    0  501  503 -0.00000000000E+00 -0.00000000000E+00 -0.12774851458E+03  0.12774851458E+03  0.00000000000E+00 0.  1.
          6    2    1    2  501    0  0.70937485859E+02 -0.50878668660E+02  0.38337342957E+02  0.19898900311E+03  0.17465997157E+03 0.  0.
         24    2    3    3    0    0  0.39091840172E+01 -0.25054972635E+02  0.80326402222E+02  0.11565337074E+03  0.79248582927E+02 0.  0.
         -6    2    1    2    0  502 -0.70937485859E+02  0.50878668660E+02  0.14925398168E+03  0.24409935070E+03  0.17229908920E+03 0.  0.
        -24    2    5    5    0    0 -0.55480468186E+02 -0.35866569613E+02  0.62877159542E+02  0.12062181768E+03  0.78940436668E+02 0.  0.
          5    1    3    3  501    0  0.67028301842E+02 -0.25823696025E+02 -0.41989059265E+02  0.83335632368E+02  0.47000000000E+01 0. -1.
        -11    1    4    4    0    0  0.21498826236E+02  0.11564168476E+02 -0.13318358641E+01  0.24447971467E+02  0.00000000000E+00 0.  1.
         12    1    4    4    0    0 -0.17589642219E+02 -0.36619141111E+02  0.81658238086E+02  0.91205399272E+02  0.00000000000E+00 0. -1.
         -5    1    5    5    0  502 -0.15457017674E+02  0.86745238272E+02  0.86376822142E+02  0.12347753302E+03  0.47000000000E+01 0.  1.
         11    1    6    6    0    0 -0.44072332378E+02  0.16420800414E+02  0.42393072846E+02  0.63318131627E+02  0.00000000000E+00 0. -1.
        -12    1    6    6    0    0 -0.11408135808E+02 -0.52287370027E+02  0.20484086697E+02  0.57303686048E+02  0.00000000000E+00 0.  1.
</event>
<event>
12    1  0.8297444E-002  0.1907539E+03  0.7818608E-02  0.1157824E+00
         21   -1    0    0  503  502  0.00000000000E+00  0.00000000000E+00  0.23448954619E+03  0.23448954619E+03  0.00000000000E+00 0. -1.
         21   -1    0    0  501  503 -0.00000000000E+00 -0.00000000000E+00 -0.32589252567E+03  0.32589252567E+03  0.00000000000E+00 0.  1.
          6    2    1    2  501    0 -0.80325982957E+02 -0.18052041672E+02 -0.24859401424E+03  0.31334648303E+03  0.17207235329E+03 0.  0.
         24    2    3    3    0    0  0.21127954803E+02 -0.18468874435E+02 -0.14839348205E+03  0.17067443992E+03  0.79508799055E+02 0.  0.
         -6    2    1    2    0  502  0.80325982957E+02  0.18052041672E+02  0.15719103477E+03  0.24703558883E+03  0.17187036100E+03 0.  0.
        -24    2    5    5    0    0  0.10796296331E+03  0.39522763142E+02  0.16016522024E+03  0.21159930315E+03  0.76833046716E+02 0.  0.
          5    1    3    3  501    0 -0.10145393776E+03  0.41683276364E+00 -0.10020053219E+03  0.14267204312E+03  0.47000000000E+01 0. -1.
        -11    1    4    4    0    0 -0.17889468715E+02 -0.32172815186E+02 -0.10243808430E+03  0.10885166165E+03  0.00000000000E+00 0.  1.
         12    1    4    4    0    0  0.39017423519E+02  0.13703940751E+02 -0.45955397751E+02  0.61822778266E+02  0.00000000000E+00 0. -1.
         -5    1    5    5    0  502 -0.27636980351E+02 -0.21470721470E+02 -0.29741854736E+01  0.35436285678E+02  0.47000000000E+01 0.  1.
         13    1    6    6    0    0  0.86330281491E+02 -0.21427526454E+01  0.75123548408E+02  0.11445984631E+03  0.00000000000E+00 0. -1.
        -14    1    6    6    0    0  0.21632681818E+02  0.41665515787E+02  0.85041671830E+02  0.97139456845E+02  0.00000000000E+00 0.  1.
</event>
<event>
12    1  0.8297444E-002  0.3898215E+03  0.7818608E-02  0.1047379E+00
         21   -1    0    0  503  502  0.00000000000E+00  0.00000000000E+00  0.37366213331E+03  0.37366213331E+03  0.00000000000E+00 0.  1.
         21   -1    0    0  501  503 -0.00000000000E+00 -0.00000000000E+00 -0.44203614609E+03  0.44203614609E+03  0.00000000000E+00 0. -1.
          6    2    1    2  501    0  0.56870811796E+02 -0.34509831434E+03 -0.14985416202E+03  0.41763273695E+03  0.17214440829E+03 0.  0.
         24    2    3    3    0    0  0.56891861558E+02 -0.13086848952E+03 -0.12317086376E+02  0.16300957331E+03  0.77827790112E+02 0.  0.
         -6    2    1    2    0  502 -0.56870811796E+02  0.34509831434E+03  0.81480149237E+02  0.39806554245E+03  0.17172660124E+03 0.  0.
        -24    2    5    5    0    0  0.19048065447E+02  0.19649141372E+03  0.88782631426E+02  0.23096346861E+03  0.80560931783E+02 0.  0.
          5    1    3    3  501    0 -0.21049762117E-01 -0.21422982481E+03 -0.13753707564E+03  0.25462316364E+03  0.47000000000E+01 0. -1.
        -11    1    4    4    0    0  0.19109604121E+02 -0.12214194562E+03 -0.64981334018E+01  0.12379845551E+03  0.00000000000E+00 0.  1.
         12    1    4    4    0    0  0.37782257437E+02 -0.87265439018E+01 -0.58189529741E+01  0.39211117801E+02  0.00000000000E+00 0. -1.
         -5    1    5    5    0  502 -0.75918877243E+02  0.14860690062E+03 -0.73024821894E+01  0.16710207383E+03  0.47000000000E+01 0.  1.
         13    1    6    6    0    0  0.34621530433E+02  0.13719274357E+03  0.27236852876E+02  0.14409144809E+03  0.00000000000E+00 0. -1.
        -14    1    6    6    0    0 -0.15573464986E+02  0.59298670147E+02  0.61545778550E+02  0.86872020525E+02  0.00000000000E+00 0.  1.
</event>
<event>
12    1  0.8297444E-002  0.1855771E+03  0.7818608E-02  0.1162541E+00
         21   -1    0    0  503  502  0.00000000000E+00  0.00000000000E+00  0.21609357385E+03  0.21609357385E+03  0.00000000000E+00 0.  1.
         21   -1    0    0  501  503 -0.00000000000E+00 -0.00000000000E+00 -0.43368529729E+03  0.43368529729E+03  0.00000000000E+00 0.  1.
          6    2    1    2  501    0 -0.57480216460E+02 -0.39272604493E+02 -0.36722170807E+03  0.41139266230E+03  0.17188899606E+03 0.  0.
         24    2    3    3    0    0 -0.14009494261E+02 -0.88977687916E+02 -0.27539807452E+03  0.29819386070E+03  0.70442772729E+02 0.  0.
         -6    2    1    2    0  502  0.57480216460E+02  0.39272604493E+02  0.14962998463E+03  0.23838620884E+03  0.17202482238E+03 0.  0.
        -24    2    5    5    0    0  0.87313756130E+02 -0.76762254674E+01  0.45629712318E+02  0.12035070839E+03  0.68699388047E+02 0.  0.
          5    1    3    3  501    0 -0.43470722200E+02  0.49705083423E+02 -0.91823633551E+02  0.11319880161E+03  0.47000000000E+01 0. -1.
        -11    1    4    4    0    0 -0.56405722897E+01  0.11328056137E+02 -0.45497981908E+02  0.47225070348E+02  0.00000000000E+00 0.  1.
         12    1    4    4    0    0 -0.83689219708E+01 -0.10030574405E+03 -0.22990009261E+03  0.25096879035E+03  0.00000000000E+00 0. -1.
         -5    1    5    5    0  502 -0.29833539669E+02  0.46948829960E+02  0.10400027231E+03  0.11803550044E+03  0.47000000000E+01 0.  1.
         13    1    6    6    0    0 -0.21302426472E+01 -0.20202440556E+02  0.13932646171E+02  0.24633212690E+02  0.00000000000E+00 0. -1.
        -14    1    6    6    0    0  0.89443998777E+02  0.12526215088E+02  0.31697066147E+02  0.95717495705E+02  0.00000000000E+00 0.  1.
</event>
<event>
12    1  0.8297444E-002  0.2824178E+03  0.7818608E-02  0.1094465E+00
         21   -1    0    0  503  502  0.00000000000E+00  0.00000000000E+00  0.28423719864E+03  0.28423719864E+03  0.00000000000E+00 0. -1.
         21   -1    0    0  501  503 -0.00000000000E+00 -0.00000000000E+00 -0.28006341835E+03  0.28006341835E+03  0.00000000000E+00 0. -1.
          6    2    1    2  501    0 -0.96081124039E+02 -0.20229629661E+03 -0.35163767539E+01  0.28177812585E+03  0.17097126451E+03 0.  0.
         24    2    3    3    0    0 -0.89939434502E+02 -0.66641995635E+02  0.30944385729E+02  0.14160165182E+03  0.81013673713E+02 0.  0.
         -6    2    1    2    0  502  0.96081124039E+02  0.20229629661E+03  0.76901570428E+01  0.28252249114E+03  0.17205942423E+03 0.  0.
        -24    2    5    5    0    0 -0.13417267384E+02  0.12219784757E+03  0.99388731233E+01  0.14675502086E+03  0.79535639389E+02 0.  0.
          5    1    3    3  501    0 -0.61416895371E+01 -0.13565430097E+03 -0.34460762483E+02  0.14017647404E+03  0.47000000000E+01 0. -1.
        -13    1    4    4    0    0 -0.17709160031E+01 -0.32460635056E+02 -0.15767623810E+02  0.36130969159E+02  0.00000000000E+00 0.  1.
         14    1    4    4    0    0 -0.88168518499E+02 -0.34181360579E+02  0.46712009539E+02  0.10547068266E+03  0.00000000000E+00 0. -1.
         -5    1    5    5    0  502  0.10949839142E+03  0.80098449036E+02 -0.22487160805E+01  0.13576747028E+03  0.47000000000E+01 0.  1.
         11    1    6    6    0    0  0.31686130152E+02  0.32129016788E+02 -0.28522266602E+01  0.45215260263E+02  0.00000000000E+00 0. -1.
        -12    1    6    6    0    0 -0.45103397536E+02  0.90068830783E+02  0.12791099783E+02  0.10153976059E+03  0.00000000000E+00 0.  1.
</event>
<event>
12    1  0.8297444E-002  0.1813829E+03  0.7818608E-02  0.1166766E+00
         21   -1    0    0  503  502  0.00000000000E+00  0.00000000000E+00  0.35786178015E+02  0.35786178015E+02  0.00000000000E+00 0. -1.
         21   -1    0    0  501  503 -0.00000000000E+00 -0.00000000000E+00 -0.10994338163E+04  0.10994338163E+04  0.00000000000E+00 0. -1.
          6    2    1    2  501    0  0.36309549235E+02 -0.43987284882E+02 -0.76696334670E+03  0.78811961586E+03  0.17218155859E+03 0.  0.
         24    2    3    3    0    0 -0.37098606086E+02  0.99578618646E+01 -0.39645187017E+03  0.40654435412E+03  0.81417202866E+02 0.  0.
         -6    2    1    2    0  502 -0.36309549235E+02  0.43987284882E+02 -0.29668429160E+03  0.34710037847E+03  0.17089130831E+03 0.  0.
        -24    2    5    5    0    0 -0.84603633277E+01 -0.51495673462E+01 -0.51443603701E+02  0.95396003454E+02  0.79723630887E+02 0.  0.
          5    1    3    3  501    0  0.73408155321E+02 -0.53945146747E+02 -0.37051147653E+03  0.38157526173E+03  0.47000000000E+01 0. -1.
        -11    1    4    4    0    0 -0.46056721343E+02 -0.25815703778E+02 -0.25069428282E+03  0.25619386327E+03  0.00000000000E+00 0.  1.
         12    1    4    4    0    0  0.89581152564E+01  0.35773565643E+02 -0.14575758735E+03  0.15035049085E+03  0.00000000000E+00 0. -1.
         -5    1    5    5    0  502 -0.27849185907E+02  0.49136852229E+02 -0.24524068789E+03  0.25170437501E+03  0.47000000000E+01 0.  1.
         13    1    6    6    0    0 -0.31258178350E+02  0.21126135957E+02 -0.60564940206E+01  0.38210842101E+02  0.00000000000E+00 0. -1.
        -14    1    6    6    0    0  0.22797815023E+02 -0.26275703303E+02 -0.45387109681E+02  0.57185161354E+02  0.00000000000E+00 0.  1.
</event>
<event>
12    1  0.8297444E-002  0.2063840E+03  0.7818608E-02  0.1144729E+00
         21   -1    0    0  503  502  0.00000000000E+00  0.00000000000E+00  0.78121522845E+02  0.78121522845E+02  0.00000000000E+00 0. -1.
         21   -1    0    0  501  503 -0.00000000000E+00 -0.00000000000E+00 -0.54506284998E+03  0.54506284998E+03  0.00000000000E+00 0.  1.
          6    2    1    2  501    0  0.10648087731E+03 -0.35147144969E+02 -0.20848507889E+03  0.29243677379E+03  0.17169664970E+03 0.  0.
         24    2    3    3    0    0  0.69325683785E+02  0.45484144432E+02 -0.11309992364E+03  0.16204378672E+03  0.81189520636E+02 0.  0.
         -6    2    1    2    0  502 -0.10648087731E+03  0.35147144969E+02 -0.25845624825E+03  0.33074759903E+03  0.17326523879E+03 0.  0.
        -24    2    5    5    0    0 -0.12612887071E+03  0.70674583700E+02 -0.21552612276E+03  0.27147426420E+03  0.79645324559E+02 0.  0.
          5    1    3    3  501    0  0.37155193522E+02 -0.80631289401E+02 -0.95385155245E+02  0.13039298707E+03  0.47000000000E+01 0. -1.
        -11    1    4    4    0    0  0.30089360801E+02 -0.19613933269E+02 -0.57786645735E+02  0.68039491745E+02  0.00000000000E+00 0.  1.
         12    1    4    4    0    0  0.39236322984E+02  0.65098077700E+02 -0.55313277906E+02  0.94004294978E+02  0.00000000000E+00 0. -1.
         -5    1    5    5    0  502  0.19647993399E+02 -0.35527438731E+02 -0.42930125487E+02  0.59273334829E+02  0.47000000000E+01 0.  1.
         11    1    6    6    0    0 -0.29154768701E+02  0.36737488801E+02 -0.20799083728E+02  0.51305413996E+02  0.00000000000E+00 0. -1.
        -12    1    6    6    0    0 -0.96974102005E+02  0.33937094899E+02 -0.19472703903E+03  0.22016885020E+03  0.00000000000E+00 0.  1.
</event>
<event>
12    1  0.8297444E-002  0.1916890E+03  0.7818608E-02  0.1157045E+00
         21   -1    0    0  501  502  0.00000000000E+00  0.00000000000E+00  0.40719654805E+03  0.40719654805E+03  0.00000000000E+00 0. -1.
         21   -1    0    0  502  503 -0.00000000000E+00 -0.00000000000E+00 -0.95109193994E+02  0.95109193994E+02  0.00000000000E+00 0. -1.
         -6    2    1    2    0  503  0.54003356935E+02  0.64400776572E+02  0.98181506492E+02  0.21537013752E+03  0.17228135516E+03 0.  0.
        -24    2    3    3    0    0  0.24348386929E+02 -0.31960713791E+02  0.39204001609E+02  0.98471077846E+02  0.80902832200E+02 0.  0.
          6    2    1    2  501    0 -0.54003356935E+02 -0.64400776572E+02  0.21390584756E+03  0.28693560452E+03  0.17179204561E+03 0.  0.
         24    2    5    5    0    0 -0.53671669263E+02 -0.22891985504E+00  0.19879851236E+03  0.22084128715E+03  0.79808051659E+02 0.  0.
          5    1    5    5  501    0 -0.33168767207E+00 -0.64171856717E+02  0.15107335206E+02  0.66094317367E+02  0.47000000000E+01 0. -1.
        -13    1    6    6    0    0  0.24576908980E+01  0.88756599886E+01 -0.41323153258E+01  0.10094236709E+02  0.00000000000E+00 0.  1.
         14    1    6    6    0    0 -0.56129360161E+02 -0.91045798437E+01  0.20293082768E+03  0.21074705044E+03  0.00000000000E+00 0. -1.
         -5    1    3    3    0  503  0.29654970006E+02  0.96361490363E+02  0.58977504884E+02  0.11689905968E+03  0.47000000000E+01 0.  1.
         13    1    4    4    0    0  0.36996488150E+02 -0.21353447361E+02  0.58908307998E+02  0.72766053904E+02  0.00000000000E+00 0. -1.
        -14    1    4    4    0    0 -0.12648101221E+02 -0.10607266430E+02 -0.19704306389E+02  0.25705023942E+02  0.00000000000E+00 0.  1.
</event>
<event>
12    1  0.8297444E-002  0.2257221E+03  0.7818608E-02  0.1130163E+00
         21   -1    0    0  501  502  0.00000000000E+00  0.00000000000E+00  0.23149270681E+03  0.23149270681E+03  0.00000000000E+00 0.  1.
         21   -1    0    0  502  503 -0.00000000000E+00 -0.00000000000E+00 -0.37066155317E+03  0.37066155317E+03  0.00000000000E+00 0.  1.
         -6    2    1    2    0  503 -0.14222222147E+03 -0.29786043233E+02 -0.26332827101E+03  0.34683174333E+03  0.17273132669E+03 0.  0.
        -24    2    3    3    0    0 -0.31035991235E+02 -0.59223733133E+02 -0.84834101152E+02  0.13443773670E+03  0.80037472557E+02 0.  0.
          6    2    1    2  501    0  0.14222222147E+03  0.29786043233E+02  0.12415942464E+03  0.25532251665E+03  0.16929163041E+03 0.  0.
         24    2    5    5    0    0  0.11702689235E+03  0.56878221481E+02  0.14631126435E+03  0.21194527913E+03  0.81138090051E+02 0.  0.
          5    1    5    5  501    0  0.25195329118E+02 -0.27092178247E+02 -0.22151839715E+02  0.43377237514E+02  0.47000000000E+01 0. -1.
        -11    1    6    6    0    0  0.28208821747E+02  0.57096993135E+02  0.50312617053E+02  0.81161343534E+02  0.00000000000E+00 0.  1.
         12    1    6    6    0    0  0.88818070608E+02 -0.21877165444E+00  0.95998647299E+02  0.13078393560E+03  0.00000000000E+00 0. -1.
         -5    1    3    3    0  503 -0.11118623024E+03  0.29437689900E+02 -0.17849416985E+03  0.21239400663E+03  0.47000000000E+01 0.  1.
         11    1    4    4    0    0  0.20123422636E+02 -0.25185823048E+02 -0.60096292703E+02  0.68197083646E+02  0.00000000000E+00 0. -1.
        -12    1    4    4    0    0 -0.51159413870E+02 -0.34037910085E+02 -0.24737808449E+02  0.66240653056E+02  0.00000000000E+00 0.  1.
</event>
<event>
12    1  0.8297444E-002  0.1915825E+03  0.7818608E-02  0.1157249E+00
         21   -1    0    0  501  502  0.00000000000E+00  0.00000000000E+00  0.67403985790E+02  0.67403985790E+02  0.00000000000E+00 0.  1.
         21   -1    0    0  502  503 -0.00000000000E+00 -0.00000000000E+00 -0.81250649873E+03  0.81250649873E+03  0.00000000000E+00 0.  1.
         -6    2    1    2    0  503 -0.43112773893E+02  0.73401790983E+02 -0.62704817755E+03  0.65566247665E+03  0.17163138444E+03 0.  0.
        -24    2    3    3    0    0 -0.38311720296E+02  0.10321357703E+03 -0.32716098424E+03  0.35422224806E+03  0.79487489659E+02 0.  0.
          6    2    1    2  501    0  0.43112773893E+02 -0.73401790983E+02 -0.11805433539E+03  0.22424800787E+03  0.17059838433E+03 0.  0.
         24    2    5    5    0    0  0.81025745130E+02 -0.51322797256E+02 -0.33921537576E+02  0.12924646567E+03  0.79716856974E+02 0.  0.
          5    1    5    5  501    0 -0.37912971237E+02 -0.22078993728E+02 -0.84132797809E+02  0.95001542194E+02  0.47000000000E+01 0. -1.
        -13    1    6    6    0    0  0.51654214282E+02 -0.12524149671E+02  0.19839192138E+02  0.56732757052E+02  0.00000000000E+00 0.  1.
         14    1    6    6    0    0  0.29371530848E+02 -0.38798647585E+02 -0.53760729714E+02  0.72513708622E+02  0.00000000000E+00 0. -1.
         -5    1    3    3    0  503 -0.48010535972E+01 -0.29811786049E+02 -0.29988719331E+03  0.30144022860E+03  0.47000000000E+01 0.  1.
         11    1    4    4    0    0 -0.21822429106E+02 -0.32101994504E+01 -0.10554373807E+03  0.10782395114E+03  0.00000000000E+00 0. -1.
        -12    1    4    4    0    0 -0.16489291190E+02  0.10642377648E+03 -0.22161724617E+03  0.24639829692E+03  0.00000000000E+00 0.  1.
</event>
<event>
12    1  0.8297444E-002  0.2279000E+03  0.7818608E-02  0.1128464E+00
         21   -1    0    0  503  502  0.00000000000E+00  0.00000000000E+00  0.84742176884E+02  0.84742176884E+02  0.00000000000E+00 0. -1.
         21   -1    0    0  501  503 -0.00000000000E+00 -0.00000000000E+00 -0.76589497983E+03  0.76589497983E+03  0.00000000000E+00 0.  1.
          6    2    1    2  501    0 -0.56990753624E+02 -0.13842803676E+03 -0.14848910477E+03  0.27200628390E+03  0.17183753049E+03 0.  0.
         24    2    3    3    0    0 -0.16141121950E+02 -0.14554284080E+02 -0.10644537693E+03  0.13488165423E+03  0.79937972040E+02 0.  0.
         -6    2    1    2    0  502  0.56990753624E+02  0.13842803676E+03 -0.53266369817E+03  0.57863087282E+03  0.16933045876E+03 0.  0.
        -24    2    5    5    0    0  0.75879116948E+02  0.39557304461E+02 -0.20700628402E+03  0.23773934554E+03  0.79661622312E+02 0.  0.
          5    1    3    3  501    0 -0.40849631673E+02 -0.12387375268E+03 -0.42043727841E+02  0.13712462967E+03  0.47000000000E+01 0. -1.
        -13    1    4    4    0    0  0.14473939480E+02  0.18350233538E+02 -0.78621781573E+02  0.82022012488E+02  0.00000000000E+00 0.  1.
         14    1    4    4    0    0 -0.30615061430E+02 -0.32904517618E+02 -0.27823595361E+02  0.52859641740E+02  0.00000000000E+00 0. -1.
         -5    1    5    5    0  502 -0.18888363325E+02  0.98870732304E+02 -0.32565741415E+03  0.34089152727E+03  0.47000000000E+01 0.  1.
         13    1    6    6    0    0  0.52779615737E+02  0.64013500345E+02 -0.13927916966E+03  0.16211755970E+03  0.00000000000E+00 0. -1.
        -14    1    6    6    0    0  0.23099501212E+02 -0.24456195884E+02 -0.67727114366E+02  0.75621785840E+02  0.00000000000E+00 0.  1.
</event>
<event>
12    1  0.8297444E-002  0.1979186E+03  0.7818608E-02  0.1151534E+00
         21   -1    0    0  501  502  0.00000000000E+00  0.00000000000E+00  0.26589410596E+03  0.26589410596E+03  0.00000000000E+00 0.  1.
         21   -1    0    0  502  503 -0.00000000000E+00 -0.00000000000E+00 -0.36989341855E+03  0.36989341855E+03  0.00000000000E+00 0.  1.
         -6    2    1    2    0  503  0.57181373970E+02 -0.77693051488E+02 -0.29863781824E+03  0.35819802658E+03  0.17267124829E+03 0.  0.
        -24    2    3    3    0    0 -0.27972964543E+02 -0.23485836585E+02 -0.19392764572E+03  0.21267828997E+03  0.79309847962E+02 0.  0.
          6    2    1    2  501    0 -0.57181373970E+02  0.77693051488E+02  0.19463850565E+03  0.27758949792E+03  0.17281742302E+03 0.  0.
         24    2    5    5    0    0 -0.89925149649E+02  0.88717860481E+02  0.10332535130E+03  0.17984552923E+03  0.75570462842E+02 0.  0.
          5    1    5    5  501    0  0.32743775680E+02 -0.11024808993E+02  0.91313154353E+02  0.97743968698E+02  0.47000000000E+01 0. -1.
        -13    1    6    6    0    0 -0.85946580265E+02  0.35234941272E+02  0.73710488225E+02  0.11858141431E+03  0.00000000000E+00 0.  1.
         14    1    6    6    0    0 -0.39785693837E+01  0.53482919209E+02  0.29614863071E+02  0.61264114914E+02  0.00000000000E+00 0. -1.
         -5    1    3    3    0  503  0.85154338513E+02 -0.54207214902E+02 -0.10471017252E+03  0.14551973662E+03  0.47000000000E+01 0.  1.
         11    1    4    4    0    0 -0.11048129670E+02  0.29377977842E+02 -0.60266896782E+02  0.67950169970E+02  0.00000000000E+00 0. -1.
        -12    1    4    4    0    0 -0.16924834873E+02 -0.52863814428E+02 -0.13366074894E+03  0.14472812000E+03  0.00000000000E+00 0.  1.
</event>
<event>
12    1  0.8297444E-002  0.1938204E+03  0.7818608E-02  0.1156367E+00
         21   -1    0    0  501  502  0.00000000000E+00  0.00000000000E+00  0.13393494329E+03  0.13393494329E+03  0.00000000000E+00 0.  1.
         21   -1    0    0  502  503 -0.00000000000E+00 -0.00000000000E+00 -0.27641506176E+03  0.27641506176E+03  0.00000000000E+00 0.  1.
         -6    2    1    2    0  503 -0.67905691487E+02  0.31386299479E+02 -0.95861945976E+02  0.21100210812E+03  0.17244156753E+03 0.  0.
        -24    2    3    3    0    0 -0.58635859320E+02 -0.36255576796E+02 -0.16945290649E+02  0.10654502745E+03  0.79448531462E+02 0.  0.
          6    2    1    2  501    0  0.67905691487E+02 -0.31386299479E+02 -0.46618172492E+02  0.19934789694E+03  0.17880169819E+03 0.  0.
         24    2    5    5    0    0  0.97869378214E+02 -0.55486438780E+02 -0.71479517464E+02  0.15331730156E+03  0.75760896650E+02 0.  0.
          5    1    5    5  501    0 -0.29963686727E+02  0.24100139301E+02  0.24861344973E+02  0.46030595373E+02  0.47000000000E+01 0. -1.
        -11    1    6    6    0    0  0.69757146751E+02  0.20350742921E+01 -0.24717445633E+02  0.74034810520E+02  0.00000000000E+00 0.  1.
         12    1    6    6    0    0  0.28112231463E+02 -0.57521513072E+02 -0.46762071832E+02  0.79282491043E+02  0.00000000000E+00 0. -1.
         -5    1    3    3    0  503 -0.92698321670E+01  0.67641876276E+02 -0.78916655328E+02  0.10445708067E+03  0.47000000000E+01 0.  1.
         11    1    4    4    0    0  0.16352818127E+02 -0.49807580314E+01  0.11339268749E+02  0.20513449905E+02  0.00000000000E+00 0. -1.
        -12    1    4    4    0    0 -0.74988677447E+02 -0.31274818765E+02 -0.28284559397E+02  0.86031577541E+02  0.00000000000E+00 0.  1.
</event>
<event>
12    1  0.8297444E-002  0.2284284E+03  0.7818608E-02  0.1128178E+00
         21   -1    0    0  503  502  0.00000000000E+00  0.00000000000E+00  0.95968346193E+03  0.95968346193E+03  0.00000000000E+00 0.  1.
         21   -1    0    0  501  503 -0.00000000000E+00 -0.00000000000E+00 -0.55638313161E+02  0.55638313161E+02  0.00000000000E+00 0. -1.
          6    2    1    2  501    0  0.10202809753E+03 -0.10668473582E+03  0.54650830024E+03  0.59232664913E+03  0.17432203387E+03 0.  0.
         24    2    3    3    0    0  0.16213670434E+02  0.79937801554E+01  0.24770378262E+03  0.26093336665E+03  0.80014212958E+02 0.  0.
         -6    2    1    2    0  502 -0.10202809753E+03  0.10668473582E+03  0.35753684852E+03  0.42299512596E+03  0.17117509454E+03 0.  0.
        -24    2    5    5    0    0 -0.82797430159E+02 -0.59719127105E+01  0.13816482774E+03  0.17559360509E+03  0.69660005324E+02 0.  0.
          5    1    3    3  501    0  0.85814427101E+02 -0.11467851597E+03  0.29880451762E+03  0.33139328248E+03  0.47000000000E+01 0. -1.
        -13    1    4    4    0    0  0.29951955831E+02 -0.28858373484E+02  0.14859260543E+03  0.15430388124E+03  0.00000000000E+00 0.  1.
         14    1    4    4    0    0 -0.13738285397E+02  0.36852153639E+02  0.99111177192E+02  0.10662948541E+03  0.00000000000E+00 0. -1.
         -5    1    5    5    0  502 -0.19230667376E+02  0.11265664853E+03  0.21937202079E+03  0.24740152087E+03  0.47000000000E+01 0.  1.
         13    1    6    6    0    0 -0.82035835103E+02  0.14077411897E+02  0.85906160078E+02  0.11961571847E+03  0.00000000000E+00 0. -1.
        -14    1    6    6    0    0 -0.76159505635E+00 -0.20049324607E+02  0.52258667659E+02  0.55977886613E+02  0.00000000000E+00 0.  1.
</event>
<event>
12    1  0.8297444E-002  0.2262856E+03  0.7818608E-02  0.1130198E+00
         21   -1    0    0  501  502  0.00000000000E+00  0.00000000000E+00  0.50382517821E+03  0.50382517821E+03  0.00000000000E+00 0. -1.
         21   -1    0    0  502  503 -0.00000000000E+00 -0.00000000000E+00 -0.99786077768E+02  0.99786077768E+02  0.00000000000E+00 0. -1.
         -6    2    1    2    0  503 -0.11842912144E+03 -0.72949347121E+02  0.21892980296E+03  0.31125764715E+03  0.17205813040E+03 0.  0.
        -24    2    3    3    0    0 -0.14503443805E+02 -0.53612442088E+02  0.16699447441E+03  0.19338555241E+03  0.80163417894E+02 0.  0.
          6    2    1    2  501    0  0.11842912144E+03  0.72949347121E+02  0.18510929748E+03  0.29235360882E+03  0.17848842127E+03 0.  0.
         24    2    5    5    0    0  0.22441052716E+02  0.80644356505E+00  0.14516265771E+02  0.83685498325E+02  0.79298735549E+02 0.  0.
          5    1    5    5  501    0  0.95988068721E+02  0.72142903556E+02  0.17059303171E+03  0.20866811050E+03  0.47000000000E+01 0. -1.
        -13    1    6    6    0    0  0.30359912093E+02 -0.30813279859E+02  0.24348026446E+02  0.49638783927E+02  0.00000000000E+00 0.  1.
         14    1    6    6    0    0 -0.79188593763E+01  0.31619723424E+02 -0.98317606759E+01  0.34046714397E+02  0.00000000000E+00 0. -1.
         -5    1    3    3    0  503 -0.10392567763E+03 -0.19336905034E+02  0.51935328545E+02  0.11787209474E+03  0.47000000000E+01 0.  1.
         13    1    4    4    0    0 -0.13463101754E+02 -0.30957297969E+02  0.10640472293E+02  0.35395325355E+02  0.00000000000E+00 0. -1.
        -14    1    4    4    0    0 -0.10403420509E+01 -0.22655144119E+02  0.15635400212E+03  0.15799022706E+03  0.00000000000E+00 0.  1.
</event>
<event>
12    1  0.8297444E-002  0.2688781E+03  0.7818608E-02  0.1102400E+00
         21   -1    0    0  503  502  0.00000000000E+00  0.00000000000E+00  0.19757041477E+04  0.19757041477E+04  0.00000000000E+00 0. -1.
         21   -1    0    0  501  503 -0.00000000000E+00 -0.00000000000E+00 -0.45056928754E+02  0.45056928754E+02  0.00000000000E+00 0. -1.
          6    2    1    2  501    0 -0.42546904315E+02 -0.19793869265E+03  0.14098817421E+04  0.14346790946E+04  0.17189419016E+03 0.  0.
         24    2    3    3    0    0  0.34755081134E+01 -0.20141421894E+03  0.10862220259E+04  0.11077114454E+04  0.81034498516E+02 0.  0.
         -6    2    1    2    0  502  0.42546904315E+02  0.19793869265E+03  0.52076547678E+03  0.58608198181E+03  0.17693344081E+03 0.  0.
        -24    2    5    5    0    0  0.31524216672E+02  0.20441746825E+03  0.34822424804E+03  0.41300384976E+03  0.80819400098E+02 0.  0.
          5    1    3    3  501    0 -0.46022412429E+02  0.34755262862E+01  0.32365971618E+03  0.32696764917E+03  0.47000000000E+01 0. -1.
        -11    1    4    4    0    0  0.16025382463E+02 -0.94037488262E+02  0.32048736843E+03  0.33438303696E+03  0.00000000000E+00 0.  1.
         12    1    4    4    0    0 -0.12549874350E+02 -0.10737673067E+03  0.76573465751E+03  0.77332840848E+03  0.00000000000E+00 0. -1.
         -5    1    5    5    0  502  0.11022687643E+02 -0.64787756038E+01  0.17254122874E+03  0.17307813204E+03  0.47000000000E+01 0.  1.
         13    1    6    6    0    0  0.18851546922E+02  0.13162526448E+03  0.28966102643E+03  0.31872260871E+03  0.00000000000E+00 0. -1.
        -14    1    6    6    0    0  0.12672669751E+02  0.72792203779E+02  0.58563221611E+02  0.94281241056E+02  0.00000000000E+00 0.  1.
</event>
<event>
12    1  0.8297444E-002  0.1907780E+03  0.7818608E-02  0.1158308E+00
         21   -1    0    0  501  502  0.00000000000E+00  0.00000000000E+00  0.79312982408E+03  0.79312982408E+03  0.00000000000E+00 0.  1.
         21   -1    0    0  502  503 -0.00000000000E+00 -0.00000000000E+00 -0.11066805214E+03  0.11066805214E+03  0.00000000000E+00 0.  1.
         -6    2    1    2    0  503 -0.75256077357E+02 -0.14195956057E+02 -0.69412581538E+01  0.18848480867E+03  0.17208526865E+03 0.  0.
        -24    2    3    3    0    0 -0.11173288800E+02  0.22656790991E+02  0.46802283157E+02  0.96968760967E+02  0.81082145595E+02 0.  0.
          6    2    1    2  501    0  0.75256077357E+02  0.14195956057E+02  0.68940303009E+03  0.71531306755E+03  0.17473192139E+03 0.  0.
         24    2    5    5    0    0 -0.20151162892E+02  0.40350064058E+02  0.31385612821E+03  0.32692647615E+03  0.79630738795E+02 0.  0.
          5    1    5    5  501    0  0.95407240249E+02 -0.26154108002E+02  0.37554690188E+03  0.38838659139E+03  0.47000000000E+01 0. -1.
        -13    1    6    6    0    0 -0.58244694929E+01 -0.22600043079E+02  0.48407927831E+02  0.53740244407E+02  0.00000000000E+00 0.  1.
         14    1    6    6    0    0 -0.14326693399E+02  0.62950107138E+02  0.26544820038E+03  0.27318623175E+03  0.00000000000E+00 0. -1.
         -5    1    3    3    0  503 -0.64082788557E+02 -0.36852747047E+02 -0.53743541311E+02  0.91516047701E+02  0.47000000000E+01 0.  1.
         13    1    4    4    0    0 -0.19236146220E+02  0.47270471108E+02  0.10062579648E+02  0.52017134383E+02  0.00000000000E+00 0. -1.
        -14    1    4    4    0    0  0.80628574205E+01 -0.24613680118E+02  0.36739703509E+02  0.44951626585E+02  0.00000000000E+00 0.  1.
</event>
<event>
12    1  0.8297444E-002  0.4329390E+03  0.7818608E-02  0.1032946E+00
         21   -1    0    0  503  502  0.00000000000E+00  0.00000000000E+00  0.28327189372E+03  0.28327189372E+03  0.00000000000E+00 0. -1.
         21   -1    0    0  501  503 -0.00000000000E+00 -0.00000000000E+00 -0.71447581907E+03  0.71447581907E+03  0.00000000000E+00 0.  1.
          6    2    1    2  501    0  0.13983393347E+03  0.37200410958E+03 -0.35149920479E+03  0.55766287759E+03  0.17174285306E+03 0.  0.
         24    2    3    3    0    0  0.11639315044E+03  0.13638569683E+03 -0.15599682668E+03  0.25056553702E+03  0.79370363741E+02 0.  0.
         -6    2    1    2    0  502 -0.13983393347E+03 -0.37200410958E+03 -0.79704720562E+02  0.44008483520E+03  0.17140954817E+03 0.  0.
        -24    2    5    5    0    0 -0.23135793893E+02 -0.19657169554E+03  0.45043501929E+01  0.21313055507E+03  0.78921783335E+02 0.  0.
          5    1    3    3  501    0  0.23440783030E+02  0.23561841275E+03 -0.19550237811E+03  0.30709734057E+03  0.47000000000E+01 0. -1.
        -13    1    4    4    0    0  0.55305005297E+02  0.13654954312E+02 -0.30072312861E+02  0.64416188873E+02  0.00000000000E+00 0.  1.
         14    1    4    4    0    0  0.61088145139E+02  0.12273074252E+03 -0.12592451382E+03  0.18614934815E+03  0.00000000000E+00 0. -1.
         -5    1    5    5    0  502 -0.11669813957E+03 -0.17543241404E+03 -0.84209070755E+02  0.22695428014E+03  0.47000000000E+01 0.  1.
         13    1    6    6    0    0  0.18158102689E+02 -0.14426866291E+03 -0.66752179498E+01  0.14556002998E+03  0.00000000000E+00 0. -1.
        -14    1    6    6    0    0 -0.41293896582E+02 -0.52303032631E+02  0.11179568143E+02  0.67570525092E+02  0.00000000000E+00 0.  1.
</event>
<event>
12    1  0.8297444E-002  0.2212884E+03  0.7818608E-02  0.1132950E+00
         21   -1    0    0  501  502  0.00000000000E+00  0.00000000000E+00  0.14132783918E+03  0.14132783918E+03  0.00000000000E+00 0.  1.
         21   -1    0    0  502  503 -0.00000000000E+00 -0.00000000000E+00 -0.48283252032E+03  0.48283252032E+03  0.00000000000E+00 0.  1.
         -6    2    1    2    0  503  0.12094720262E+03 -0.69549950212E+02 -0.33667671261E+03  0.40281931058E+03  0.17160060246E+03 0.  0.
        -24    2    3    3    0    0  0.50028484465E+02  0.30167434994E+02 -0.13864138818E+03  0.16998224046E+03  0.79117660256E+02 0.  0.
          6    2    1    2  501    0 -0.12094720262E+03  0.69549950212E+02 -0.48279685271E+01  0.22134104892E+03  0.17176474976E+03 0.  0.
         24    2    5    5    0    0 -0.12672327016E+03  0.10007559413E+03  0.18204786738E+02  0.18238240793E+03  0.82813143408E+02 0.  0.
          5    1    5    5  501    0  0.57760675424E+01 -0.30525643916E+02 -0.23032755265E+02  0.38958640991E+02  0.47000000000E+01 0. -1.
        -13    1    6    6    0    0 -0.52172500718E+02  0.83683031765E+02  0.34230509848E+02  0.10438652902E+03  0.00000000000E+00 0.  1.
         14    1    6    6    0    0 -0.74550769443E+02  0.16392562363E+02 -0.16025723110E+02  0.77995878907E+02  0.00000000000E+00 0. -1.
         -5    1    3    3    0  503  0.70918718154E+02 -0.99717385206E+02 -0.19803532443E+03  0.23283707012E+03  0.47000000000E+01 0.  1.
         11    1    4    4    0    0  0.64484192773E+02  0.11800743489E+02 -0.63413990363E+02  0.91207471395E+02  0.00000000000E+00 0. -1.
        -12    1    4    4    0    0 -0.14455708308E+02  0.18366691505E+02 -0.75227397814E+02  0.78774769066E+02  0.00000000000E+00 0.  1.
</event>
<event>
12    1  0.8297444E-002  0.1828357E+03  0.7818608E-02  0.1165486E+00
         21   -1    0    0  501  502  0.00000000000E+00  0.00000000000E+00  0.25715540182E+02  0.25715540182E+02  0.00000000000E+00 0.  1.
         21   -1    0    0  502  503 -0.00000000000E+00 -0.00000000000E+00 -0.15154813818E+04  0.15154813818E+04  0.00000000000E+00 0.  1.
         -6    2    1    2    0  503  0.47850485436E+02 -0.38505382797E+02 -0.10463114718E+04  0.10621659870E+04  0.17221078535E+03 0.  0.
        -24    2    3    3    0    0 -0.41546013928E+02 -0.47009254905E+02 -0.61291653107E+03  0.61954050815E+03  0.65021733667E+02 0.  0.
          6    2    1    2  501    0 -0.47850485436E+02  0.38505382797E+02 -0.44345436987E+03  0.47903093497E+03  0.17043041114E+03 0.  0.
         24    2    5    5    0    0 -0.92950260957E+00 -0.28256688342E+02 -0.32006781477E+03  0.33102727031E+03  0.79601150932E+02 0.  0.
          5    1    5    5  501    0 -0.46920982827E+02  0.66762071139E+02 -0.12338655510E+03  0.14800366466E+03  0.47000000000E+01 0. -1.
        -13    1    6    6    0    0  0.27301738127E+02 -0.52444841880E+00 -0.24166754980E+03  0.24320539587E+03  0.00000000000E+00 0.  1.
         14    1    6    6    0    0 -0.28231240737E+02 -0.27732239923E+02 -0.78400264961E+02  0.87821874443E+02  0.00000000000E+00 0. -1.
         -5    1    3    3    0  503  0.89396499364E+02  0.85038721081E+01 -0.43339494070E+03  0.44262547889E+03  0.47000000000E+01 0.  1.
         13    1    4    4    0    0  0.16881144182E+02 -0.11202394262E+02 -0.97027367322E+02  0.99120011479E+02  0.00000000000E+00 0. -1.
        -14    1    4    4    0    0 -0.58427158110E+02 -0.35806860642E+02 -0.51588916375E+03  0.52042049667E+03  0.00000000000E+00 0.  1.
</event>
<event>
12    1  0.8297444E-002  0.2022914E+03  0.7818608E-02  0.1148165E+00
         21   -1    0    0  503  502  0.00000000000E+00  0.00000000000E+00  0.26205270090E+03  0.26205270090E+03  0.00000000000E+00 0.  1.
         21   -1    0    0  501  503 -0.00000000000E+00 -0.00000000000E+00 -0.17810250304E+03  0.17810250304E+03  0.00000000000E+00 0. -1.
          6    2    1    2  501    0  0.52694573351E+02  0.89000067764E+02 -0.37332658156E+02  0.20570739540E+03  0.17385072630E+03 0.  0.
         24    2    3    3    0    0  0.42599219949E+02  0.66106721610E+02  0.44370491337E+02  0.12012985106E+03  0.79231612585E+02 0.  0.
         -6    2    1    2    0  502 -0.52694573351E+02 -0.89000067764E+02  0.12128285602E+03  0.23444780854E+03  0.17192589579E+03 0.  0.
        -24    2    5    5    0    0 -0.41103543533E+02  0.12910232886E+02  0.24593982973E+02  0.93412743678E+02  0.79151129360E+02 0.  0.
          5    1    3    3  501    0  0.10095353402E+02  0.22893346154E+02 -0.81703149493E+02  0.85577544341E+02  0.47000000000E+01 0. -1.
        -11    1    4    4    0    0  0.60966127186E+02  0.63932931134E+02  0.21879675899E+02  0.91011035402E+02  0.00000000000E+00 0.  1.
         12    1    4    4    0    0 -0.18366907237E+02  0.21737904758E+01  0.22490815438E+02  0.29118815662E+02  0.00000000000E+00 0. -1.
         -5    1    5    5    0  502 -0.11591029818E+02 -0.10191030065E+03  0.96688873043E+02  0.14103506486E+03  0.47000000000E+01 0.  1.
         13    1    6    6    0    0  0.18509219177E+02 -0.93039641988E+01 -0.76591795777E+01  0.22086601734E+02  0.00000000000E+00 0. -1.
        -14    1    6    6    0    0 -0.59612762710E+02  0.22214197085E+02  0.32253162551E+02  0.71326141944E+02  0.00000000000E+00 0.  1.
</event>
<event>
12    1  0.8297444E-002  0.2790972E+03  0.7818608E-02  0.1096269E+00
         21   -1    0    0  501  502  0.00000000000E+00  0.00000000000E+00  0.11834449500E+04  0.11834449500E+04  0.00000000000E+00 0. -1.
         21   -1    0    0  502  503 -0.00000000000E+00 -0.00000000000E+00 -0.69112122138E+02  0.69112122138E+02  0.00000000000E+00 0.  1.
         -6    2    1    2    0  503 -0.19808007345E+03 -0.94063696108E+02  0.41806372887E+03  0.50266543144E+03  0.17266024482E+03 0.  0.
        -24    2    3    3    0    0 -0.15335300877E+03 -0.79589363536E+01  0.20140450701E+03  0.26522523184E+03  0.78741083275E+02 0.  0.
          6    2    1    2  501    0  0.19808007345E+03  0.94063696108E+02  0.69626909897E+03  0.74989164067E+03  0.17164824542E+03 0.  0.
         24    2    5    5    0    0  0.15641329109E+03  0.63333307859E+02  0.66128142944E+03  0.68722821807E+03  0.80704828038E+02 0.  0.
          5    1    5    5  501    0  0.41666782360E+02  0.30730388249E+02  0.34987669524E+02  0.62663422607E+02  0.47000000000E+01 0. -1.
        -13    1    6    6    0    0  0.57877613744E+01  0.23316640881E+02  0.39673503527E+02  0.46380500275E+02  0.00000000000E+00 0.  1.
         14    1    6    6    0    0  0.15062552972E+03  0.40016666978E+02  0.62160792591E+03  0.64084771779E+03  0.00000000000E+00 0. -1.
         -5    1    3    3    0  503 -0.44727064685E+02 -0.86104759754E+02  0.21665922186E+03  0.23744019960E+03  0.47000000000E+01 0.  1.
         13    1    4    4    0    0 -0.14983941718E+03  0.48749562533E+01  0.20240701337E+03  0.25188135144E+03  0.00000000000E+00 0. -1.
        -14    1    4    4    0    0 -0.35135915867E+01 -0.12833892607E+02 -0.10025063600E+01  0.13343880406E+02  0.00000000000E+00 0.  1.
</event>
<event>
12    1  0.8297444E-002  0.2444328E+03  0.7818608E-02  0.1117636E+00
         21   -1    0    0  501  502  0.00000000000E+00  0.00000000000E+00  0.14050906058E+03  0.14050906058E+03  0.00000000000E+00 0. -1.
         21   -1    0    0  502  503 -0.00000000000E+00 -0.00000000000E+00 -0.41847365659E+03  0.41847365659E+03  0.00000000000E+00 0.  1.
         -6    2    1    2    0  503 -0.13565515579E+03  0.10865673548E+03 -0.15572692537E+03  0.28982452243E+03  0.17186847023E+03 0.  0.
        -24    2    3    3    0    0 -0.93130535816E+02  0.39266476007E+02 -0.16322753153E+03  0.20796060787E+03  0.79932687552E+02 0.  0.
          6    2    1    2  501    0  0.13565515579E+03 -0.10865673548E+03 -0.12223767064E+03  0.26915819474E+03  0.16521343232E+03 0.  0.
         24    2    5    5    0    0  0.16419336947E+03 -0.81611394189E+02 -0.10581462934E+03  0.22628994996E+03  0.79940749501E+02 0.  0.
          5    1    5    5  501    0 -0.28538213682E+02 -0.27045341288E+02 -0.16423041296E+02  0.42868244785E+02  0.47000000000E+01 0. -1.
        -11    1    6    6    0    0  0.31914510578E+02 -0.50225061816E+02 -0.55365345190E+02  0.81279851549E+02  0.00000000000E+00 0.  1.
         12    1    6    6    0    0  0.13227885889E+03 -0.31386332373E+02 -0.50449284150E+02  0.14501009841E+03  0.00000000000E+00 0. -1.
         -5    1    3    3    0  503 -0.42524619970E+02  0.69390259471E+02  0.75006061567E+01  0.81863914552E+02  0.47000000000E+01 0.  1.
         11    1    4    4    0    0  0.13680438735E+02  0.73046921580E+01 -0.99573966607E+01  0.18429939766E+02  0.00000000000E+00 0. -1.
        -12    1    4    4    0    0 -0.10681097455E+03  0.31961783849E+02 -0.15327013487E+03  0.18953066811E+03  0.00000000000E+00 0.  1.
</event>
<event>
12    1  0.8297444E-002  0.2444652E+03  0.7818608E-02  0.1116976E+00
         21   -1    0    0  501  502  0.00000000000E+00  0.00000000000E+00  0.55239313572E+03  0.55239313572E+03  0.00000000000E+00 0. -1.
         21   -1    0    0  502  503 -0.00000000000E+00 -0.00000000000E+00 -0.10859937011E+03  0.10859937011E+03  0.00000000000E+00 0. -1.
         -6    2    1    2    0  503  0.13245877358E+03  0.10942734543E+03  0.19425147286E+03  0.31165800082E+03  0.17285081469E+03 0.  0.
        -24    2    3    3    0    0  0.12039937010E+03  0.90161882382E+02  0.68150183856E+02  0.18343860928E+03  0.79875543557E+02 0.  0.
          6    2    1    2  501    0 -0.13245877358E+03 -0.10942734543E+03  0.24954229274E+03  0.34933450501E+03  0.17390678508E+03 0.  0.
         24    2    5    5    0    0 -0.37481268473E+02 -0.11248834072E+03  0.11041362644E+03  0.18078489227E+03  0.80209326670E+02 0.  0.
          5    1    5    5  501    0 -0.94977505109E+02  0.30609952870E+01  0.13912866630E+03  0.16854961274E+03  0.47000000000E+01 0. -1.
        -11    1    6    6    0    0 -0.15781757338E+02  0.36198004326E+01  0.40284179252E+02  0.43416378452E+02  0.00000000000E+00 0.  1.
         12    1    6    6    0    0 -0.21699511135E+02 -0.11610814115E+03  0.70129447191E+02  0.13736851382E+03  0.00000000000E+00 0. -1.
         -5    1    3    3    0  503  0.12059403480E+02  0.19265463052E+02  0.12610128901E+03  0.12821939154E+03  0.47000000000E+01 0.  1.
         13    1    4    4    0    0  0.82706808111E+02  0.80697002659E+02  0.13441865919E+02  0.11633187914E+03  0.00000000000E+00 0. -1.
        -14    1    4    4    0    0  0.37692561991E+02  0.94648797232E+01  0.54708317937E+02  0.67106730133E+02  0.00000000000E+00 0.  1.
</event>
<event>
12    1  0.8297444E-002  0.1729148E+03  0.7818608E-02  0.1175207E+00
         21   -1    0    0  501  502  0.00000000000E+00  0.00000000000E+00  0.35115517603E+03  0.35115517603E+03  0.00000000000E+00 0. -1.
         21   -1    0    0  502  503 -0.00000000000E+00 -0.00000000000E+00 -0.12592793404E+03  0.12592793404E+03  0.00000000000E+00 0. -1.
         -6    2    1    2    0  503  0.16320715583E+02 -0.29447356803E+01 -0.24608184640E+02  0.17324551700E+03  0.17068511706E+03 0.  0.
        -24    2    3    3    0    0 -0.13923923438E+02 -0.47106749678E+02  0.29655084752E+02  0.96880511435E+02  0.78060796404E+02 0.  0.
          6    2    1    2  501    0 -0.16320715583E+02  0.29447356803E+01  0.24983542663E+03  0.30383759307E+03  0.17211770780E+03 0.  0.
         24    2    5    5    0    0 -0.55223514337E+02 -0.22686754427E+02  0.71359192431E+02  0.11932131409E+03  0.74706869090E+02 0.  0.
          5    1    5    5  501    0  0.38902798754E+02  0.25631490107E+02  0.17847623420E+03  0.18451627898E+03  0.47000000000E+01 0. -1.
        -11    1    6    6    0    0  0.17090287820E+02  0.53751614268E+01  0.10861509557E+02  0.20950959118E+02  0.00000000000E+00 0.  1.
         12    1    6    6    0    0 -0.72313802157E+02 -0.28061915853E+02  0.60497682874E+02  0.98370354970E+02  0.00000000000E+00 0. -1.
         -5    1    3    3    0  503  0.30244639021E+02  0.44162013997E+02 -0.54263269392E+02  0.76365005565E+02  0.47000000000E+01 0.  1.
         13    1    4    4    0    0  0.64657075022E+01  0.17926570050E+02 -0.59783764446E+01  0.19972688156E+02  0.00000000000E+00 0. -1.
        -14    1    4    4    0    0 -0.20389630940E+02 -0.65033319728E+02  0.35633461197E+02  0.76907823279E+02  0.00000000000E+00 0.  1.
</event>
<event>
12    1  0.8297444E-002  0.2010881E+03  0.7818608E-02  0.1148995E+00
         21   -1    0    0  501  502  0.00000000000E+00  0.00000000000E+00  0.17985256742E+03  0.17985256742E+03  0.00000000000E+00 0.  1.
         21   -1    0    0  502  503 -0.00000000000E+00 -0.00000000000E+00 -0.55059103618E+03  0.55059103618E+03  0.00000000000E+00 0.  1.
         -6    2    1    2    0  503  0.49864920721E+02 -0.89548479355E+02 -0.46653257197E+03  0.50770398297E+03  0.17206177131E+03 0.  0.
        -24    2    3    3    0    0  0.28847937304E+02  0.97649592750E+01 -0.16488517627E+03  0.18939891858E+03  0.88075371647E+02 0.  0.
          6    2    1    2  501    0 -0.49864920721E+02  0.89548479355E+02  0.95794103201E+02  0.22273962063E+03  0.17300574533E+03 0.  0.
         24    2    5    5    0    0 -0.25634068708E+02 -0.18599885084E+02  0.58994340993E+02  0.10586569103E+03  0.82000921123E+02 0.  0.
          5    1    5    5  501    0 -0.24230852012E+02  0.10814836444E+03  0.36799762208E+02  0.11687392959E+03  0.47000000000E+01 0. -1.
        -11    1    6    6    0    0 -0.36922545137E+02  0.23669707366E+02  0.25196214937E+02  0.50580417489E+02  0.00000000000E+00 0.  1.
         12    1    6    6    0    0  0.11288476429E+02 -0.42269592450E+02  0.33798126056E+02  0.55285273545E+02  0.00000000000E+00 0. -1.
         -5    1    3    3    0  503  0.21016983416E+02 -0.99313438630E+02 -0.30164739570E+03  0.31830506439E+03  0.47000000000E+01 0.  1.
         11    1    4    4    0    0 -0.22500366076E+01  0.17720803819E+02 -0.15469183440E+03  0.15571979059E+03  0.00000000000E+00 0. -1.
        -12    1    4    4    0    0  0.31097973912E+02 -0.79558445435E+01 -0.10193341874E+02  0.33679127993E+02  0.00000000000E+00 0.  1.
</event>
<event>
12    1  0.8297444E-002  0.2643394E+03  0.7818608E-02  0.1104576E+00
         21   -1    0    0  503  502  0.00000000000E+00  0.00000000000E+00  0.34270714431E+03  0.34270714431E+03  0.00000000000E+00 0.  1.
         21   -1    0    0  501  503 -0.00000000000E+00 -0.00000000000E+00 -0.21032620354E+03  0.21032620354E+03  0.00000000000E+00 0. -1.
          6    2    1    2  501    0 -0.18611743186E+03 -0.75024082951E+02  0.17599265459E+02  0.26492456802E+03  0.17206679265E+03 0.  0.
         24    2    3    3    0    0 -0.46802145734E+02 -0.80084603244E+02 -0.40671964323E+01  0.12376549681E+03  0.81837470589E+02 0.  0.
         -6    2    1    2    0  502  0.18611743186E+03  0.75024082951E+02  0.11478167531E+03  0.28810877983E+03  0.17194046808E+03 0.  0.
        -24    2    5    5    0    0  0.79685439030E+02 -0.10740234140E+02  0.10520551123E+03  0.15100633601E+03  0.72591956157E+02 0.  0.
          5    1    3    3  501    0 -0.13931528612E+03  0.50605202933E+01  0.21666461891E+02  0.14115907121E+03  0.47000000000E+01 0. -1.
        -11    1    4    4    0    0 -0.18394028775E+02 -0.95588829821E+01  0.33161958442E+02  0.39107902349E+02  0.00000000000E+00 0.  1.
         12    1    4    4    0    0 -0.28408116960E+02 -0.70525720262E+02 -0.37229154874E+02  0.84657594464E+02  0.00000000000E+00 0. -1.
         -5    1    5    5    0  502  0.10643199283E+03  0.85764317091E+02  0.95761640837E+01  0.13710244382E+03  0.47000000000E+01 0.  1.
         13    1    6    6    0    0  0.50245049266E+02  0.45842471305E+01  0.11710449861E+02  0.51794931542E+02  0.00000000000E+00 0. -1.
        -14    1    6    6    0    0  0.29440389764E+02 -0.15324481270E+02  0.93495061370E+02  0.99211404466E+02  0.00000000000E+00 0.  1.
</event>
<event>
12    1  0.8297444E-002  0.2698672E+03  0.7818608E-02  0.1101360E+00
         21   -1    0    0  501  502  0.00000000000E+00  0.00000000000E+00  0.55338171025E+03  0.55338171025E+03  0.00000000000E+00 0. -1.
         21   -1    0    0  502  503 -0.00000000000E+00 -0.00000000000E+00 -0.14252970956E+03  0.14252970956E+03  0.00000000000E+00 0.  1.
         -6    2    1    2    0  503 -0.20258414010E+03  0.46130344487E+02  0.10903807771E+03  0.29106287096E+03  0.17222064325E+03 0.  0.
        -24    2    3    3    0    0 -0.14640177520E+03  0.13784306311E+02  0.13897513185E+03  0.21950141820E+03  0.85107569800E+02 0.  0.
          6    2    1    2  501    0  0.20258414010E+03 -0.46130344487E+02  0.30181392299E+03  0.40484854885E+03  0.17216957017E+03 0.  0.
         24    2    5    5    0    0  0.16431048954E+03 -0.39298412040E+02  0.12707835478E+03  0.22577829329E+03  0.79275641311E+02 0.  0.
          5    1    5    5  501    0  0.38273650554E+02 -0.68319324470E+01  0.17473556821E+03  0.17907025556E+03  0.47000000000E+01 0. -1.
        -13    1    6    6    0    0  0.52836954378E+01 -0.19272276422E+02 -0.18610448312E+01  0.20069916886E+02  0.00000000000E+00 0.  1.
         14    1    6    6    0    0  0.15902679410E+03 -0.20026135618E+02  0.12893939961E+03  0.20570837640E+03  0.00000000000E+00 0. -1.
         -5    1    3    3    0  503 -0.56182364897E+02  0.32346038176E+02 -0.29937054140E+02  0.71561452764E+02  0.47000000000E+01 0.  1.
         11    1    4    4    0    0  0.88714267383E+01  0.11324440106E+02  0.87866844199E+01  0.16856778434E+02  0.00000000000E+00 0. -1.
        -12    1    4    4    0    0 -0.15527320194E+03  0.24598662050E+01  0.13018844743E+03  0.20264463976E+03  0.00000000000E+00 0.  1.
</event>
<event>
12    1  0.8297444E-002  0.2269666E+03  0.7818608E-02  0.1128802E+00
         21   -1    0    0  503  502  0.00000000000E+00  0.00000000000E+00  0.26311152464E+02  0.26311152464E+02  0.00000000000E+00 0.  1.
         21   -1    0    0  501  503 -0.00000000000E+00 -0.00000000000E+00 -0.20091389734E+04  0.20091389734E+04  0.00000000000E+00 0.  1.
          6    2    1    2  501    0  0.14619601234E+03 -0.25512055970E+02 -0.11545611406E+04  0.11766489183E+04  0.17165986888E+03 0.  0.
         24    2    3    3    0    0  0.39414453195E+02 -0.22234888996E+02 -0.82915987964E+03  0.83412722291E+03  0.78830378527E+02 0.  0.
         -6    2    1    2    0  502 -0.14619601234E+03  0.25512055970E+02 -0.82826668033E+03  0.85880120753E+03  0.17172559883E+03 0.  0.
        -24    2    5    5    0    0 -0.17626782183E+03  0.19862187695E+02 -0.74506850471E+03  0.77003037244E+03  0.79717289521E+02 0.  0.
          5    1    3    3  501    0  0.10678155914E+03 -0.32771669743E+01 -0.32540126094E+03  0.34252169540E+03  0.47000000000E+01 0. -1.
        -13    1    4    4    0    0  0.61367162945E+02 -0.47516168713E+01 -0.63003579437E+03  0.63303523499E+03  0.00000000000E+00 0.  1.
         14    1    4    4    0    0 -0.21952709750E+02 -0.17483272125E+02 -0.19912408528E+03  0.20109198792E+03  0.00000000000E+00 0. -1.
         -5    1    5    5    0  502  0.30071809492E+02  0.56498682754E+01 -0.83198175615E+02  0.88770835095E+02  0.47000000000E+01 0.  1.
         11    1    6    6    0    0 -0.45731719792E+02 -0.27503071954E+02 -0.26302617866E+03  0.26838513339E+03  0.00000000000E+00 0. -1.
        -12    1    6    6    0    0 -0.13053610204E+03  0.47365259649E+02 -0.48204232605E+03  0.50164523905E+03  0.00000000000E+00 0.  1.
</event>
<event>
12    1  0.8297444E-002  0.1860832E+03  0.7818608E-02  0.1162086E+00
         21   -1    0    0  503  502  0.00000000000E+00  0.00000000000E+00  0.87212215085E+03  0.87212215085E+03  0.00000000000E+00 0.  1.
         21   -1    0    0  501  503 -0.00000000000E+00 -0.00000000000E+00 -0.41701857363E+02  0.41701857363E+02  0.00000000000E+00 0.  1.
          6    2    1    2  501    0 -0.43513861594E+02  0.56368527345E+02  0.31401430528E+03  0.36491407485E+03  0.17171613515E+03 0.  0.
         24    2    3    3    0    0 -0.33916112445E+02  0.10182016680E+03  0.19477872988E+03  0.23686259785E+03  0.81532126170E+02 0.  0.
         -6    2    1    2    0  502  0.43513861594E+02 -0.56368527345E+02  0.51640598820E+03  0.54890993337E+03  0.17191888573E+03 0.  0.
        -24    2    5    5    0    0  0.45122457660E+02 -0.22972562993E+01  0.11762280667E+03  0.14644700860E+03  0.74634362790E+02 0.  0.
          5    1    3    3  501    0 -0.95977491487E+01 -0.45451639455E+02  0.11923557540E+03  0.12805147699E+03  0.47000000000E+01 0. -1.
        -11    1    4    4    0    0 -0.41053141469E+02  0.44689395581E+02  0.42563659812E+02  0.74122652668E+02  0.00000000000E+00 0.  1.
         12    1    4    4    0    0  0.71370290245E+01  0.57130771219E+02  0.15221507007E+03  0.16273994519E+03  0.00000000000E+00 0. -1.
         -5    1    5    5    0  502 -0.16085960665E+01 -0.54071271046E+02  0.39878318153E+03  0.40246292476E+03  0.47000000000E+01 0.  1.
         13    1    6    6    0    0  0.33231115719E+02  0.88342693487E+01  0.12420652165E+03  0.12887828129E+03  0.00000000000E+00 0. -1.
        -14    1    6    6    0    0  0.11891341941E+02 -0.11131525648E+02 -0.65837149867E+01  0.17568727314E+02  0.00000000000E+00 0.  1.
</event>
<event>
12    1  0.8297444E-002  0.2920672E+03  0.7818608E-02  0.1089632E+00
         21   -1    0    0  501  502  0.00000000000E+00  0.00000000000E+00  0.83389901519E+02  0.83389901519E+02  0.00000000000E+00 0.  1.
         21   -1    0    0  502  503 -0.00000000000E+00 -0.00000000000E+00 -0.11662341182E+04  0.11662341182E+04  0.00000000000E+00 0. -1.
         -6    2    1    2    0  503 -0.12696439325E+03  0.19797036666E+03 -0.76542490529E+03  0.81827929430E+03  0.16850369316E+03 0.  0.
        -24    2    3    3    0    0 -0.13298598041E+03  0.21694289153E+03 -0.68379657703E+03  0.73412770378E+03  0.81340257766E+02 0.  0.
          6    2    1    2  501    0  0.12696439325E+03 -0.19797036666E+03 -0.31741931141E+03  0.43134472544E+03  0.17317918374E+03 0.  0.
         24    2    5    5    0    0  0.73197373117E+02 -0.11175007486E+03 -0.87580622000E+02  0.18000283812E+03  0.82974223219E+02 0.  0.
          5    1    5    5  501    0  0.53767020134E+02 -0.86220291801E+02 -0.22983868941E+03  0.25134188732E+03  0.47000000000E+01 0. -1.
        -13    1    6    6    0    0  0.66883995347E+02 -0.33886443275E+02 -0.63504487524E+02  0.98257721361E+02  0.00000000000E+00 0.  1.
         14    1    6    6    0    0  0.63133777695E+01 -0.77863631585E+02 -0.24076134475E+02  0.81745116758E+02  0.00000000000E+00 0. -1.
         -5    1    3    3    0  503  0.60215871580E+01 -0.18972524867E+02 -0.81628328263E+02  0.84151590518E+02  0.47000000000E+01 0.  1.
         11    1    4    4    0    0 -0.27117279491E+01  0.67967769806E+02 -0.20705915164E+03  0.21794601047E+03  0.00000000000E+00 0. -1.
        -12    1    4    4    0    0 -0.13027425246E+03  0.14897512172E+03 -0.47673742539E+03  0.51618169331E+03  0.00000000000E+00 0.  1.
</event>
<event>
12    1  0.8297444E-002  0.2485534E+03  0.7818608E-02  0.1114442E+00
         21   -1    0    0  503  502  0.00000000000E+00  0.00000000000E+00  0.15751134081E+03  0.15751134081E+03  0.00000000000E+00 0.  1.
         21   -1    0    0  501  503 -0.00000000000E+00 -0.00000000000E+00 -0.55368326497E+03  0.55368326497E+03  0.00000000000E+00 0.  1.
          6    2    1    2  501    0  0.17315138844E+03 -0.46378525704E+02 -0.39178229471E+03  0.46397430778E+03  0.17218136039E+03 0.  0.
         24    2    3    3    0    0  0.19115588335E+03 -0.61429004901E+02 -0.30801067493E+03  0.37685110168E+03  0.82656412803E+02 0.  0.
         -6    2    1    2    0  502 -0.17315138844E+03  0.46378525704E+02 -0.43896294515E+01  0.24722029801E+03  0.17019470008E+03 0.  0.
        -24    2    5    5    0    0 -0.65689127127E+02  0.13221351872E+02 -0.62937062419E+02  0.12034465933E+03  0.77665292347E+02 0.  0.
          5    1    3    3  501    0 -0.18004494918E+02  0.15050479197E+02 -0.83771619775E+02  0.87123206100E+02  0.47000000000E+01 0. -1.
        -13    1    4    4    0    0  0.14799495868E+03 -0.67990935010E+02 -0.28305158639E+03  0.32656312651E+03  0.00000000000E+00 0.  1.
         14    1    4    4    0    0  0.43160924671E+02  0.65619301096E+01 -0.24959088545E+02  0.50287975165E+02  0.00000000000E+00 0. -1.
         -5    1    5    5    0  502 -0.10746226131E+03  0.33157173832E+02  0.58547432968E+02  0.12687563868E+03  0.47000000000E+01 0.  1.
         13    1    6    6    0    0 -0.59340444200E+02  0.11676204212E+01 -0.35970027405E+01  0.59460828147E+02  0.00000000000E+00 0. -1.
        -14    1    6    6    0    0 -0.63486829269E+01  0.12053731451E+02 -0.59340059679E+02  0.60883831182E+02  0.00000000000E+00 0.  1.
</event>
<event>
12    1  0.8297444E-002  0.1755448E+03  0.7818608E-02  0.1173117E+00
         21   -1    0    0  503  502  0.00000000000E+00  0.00000000000E+00  0.42673124063E+03  0.42673124063E+03  0.00000000000E+00 0. -1.
         21   -1    0    0  501  503 -0.00000000000E+00 -0.00000000000E+00 -0.72244953905E+02  0.72244953905E+02  0.00000000000E+00 0. -1.
          6    2    1    2  501    0 -0.31379414607E+02 -0.10280948782E+02  0.14267528096E+03  0.22621272251E+03  0.17241112047E+03 0.  0.
         24    2    3    3    0    0  0.84439613988E+01 -0.15305746401E+02  0.47419118600E+00  0.78380419547E+02  0.76404835934E+02 0.  0.
         -6    2    1    2    0  502  0.31379414607E+02  0.10280948782E+02  0.21181100577E+03  0.27276347203E+03  0.16865836456E+03 0.  0.
        -24    2    5    5    0    0 -0.21542670178E+02  0.61779378187E+02  0.12185596683E+03  0.15628671761E+03  0.72772819384E+02 0.  0.
          5    1    3    3  501    0 -0.39823376006E+02  0.50247976193E+01  0.14220108977E+03  0.14783230296E+03  0.47000000000E+01 0. -1.
        -13    1    4    4    0    0  0.11415123987E+01 -0.42281799869E+01 -0.37706550155E+02  0.37960037950E+02  0.00000000000E+00 0.  1.
         14    1    4    4    0    0  0.73024490001E+01 -0.11077566415E+02  0.38180741341E+02  0.40420381597E+02  0.00000000000E+00 0. -1.
         -5    1    5    5    0  502  0.52922084785E+02 -0.51498429404E+02  0.89955038939E+02  0.11647675442E+03  0.47000000000E+01 0.  1.
         11    1    6    6    0    0  0.20690453817E+02  0.49773104321E+02  0.64625160660E+02  0.84153836414E+02  0.00000000000E+00 0. -1.
        -12    1    6    6    0    0 -0.42233123994E+02  0.12006273866E+02  0.57230806173E+02  0.72132881197E+02  0.00000000000E+00 0.  1.
</event>
<event>
12    1  0.8297444E-002  0.1790646E+03  0.7818608E-02  0.1168797E+00
         21   -1    0    0  503  502  0.00000000000E+00  0.00000000000E+00  0.18326832228E+03  0.18326832228E+03  0.00000000000E+00 0.  1.
         21   -1    0    0  501  503 -0.00000000000E+00 -0.00000000000E+00 -0.22030655389E+03  0.22030655389E+03  0.00000000000E+00 0.  1.
          6    2    1    2  501    0 -0.18031128861E+02  0.46695271118E+02 -0.11040285062E+03  0.21006392361E+03  0.17155900625E+03 0.  0.
         24    2    3    3    0    0 -0.44938723653E+02 -0.21093668430E+02 -0.18879289673E+02  0.92940009780E+02  0.76269168790E+02 0.  0.
         -6    2    1    2    0  502  0.18031128861E+02 -0.46695271118E+02  0.73364619000E+02  0.19351095256E+03  0.17192600585E+03 0.  0.
        -24    2    5    5    0    0 -0.13067763447E+02 -0.20812907107E+02 -0.25616712712E+02  0.86476229707E+02  0.78854161529E+02 0.  0.
          5    1    3    3  501    0  0.26907594792E+02  0.67788939548E+02 -0.91523560942E+02  0.11712391383E+03  0.47000000000E+01 0. -1.
        -13    1    4    4    0    0 -0.65568933356E+02 -0.12621822496E+02 -0.56543129831E+01  0.67011690621E+02  0.00000000000E+00 0.  1.
         14    1    4    4    0    0  0.20630209703E+02 -0.84718459341E+01 -0.13224976690E+02  0.25928319159E+02  0.00000000000E+00 0. -1.
         -5    1    5    5    0  502  0.31098892307E+02 -0.25882364011E+02  0.98981331712E+02  0.10703472286E+03  0.47000000000E+01 0.  1.
         13    1    6    6    0    0 -0.16444737023E+02 -0.50031271976E+02 -0.21028577762E+02  0.56707659394E+02  0.00000000000E+00 0. -1.
        -14    1    6    6    0    0  0.33769735761E+01  0.29218364869E+02 -0.45881349500E+01  0.29768570313E+02  0.00000000000E+00 0.  1.
</event>
<event>
12    1  0.8297444E-002  0.1942339E+03  0.7818608E-02  0.1155431E+00
         21   -1    0    0  501  502  0.00000000000E+00  0.00000000000E+00  0.59668389719E+02  0.59668389719E+02  0.00000000000E+00 0. -1.
         21   -1    0    0  502  503 -0.00000000000E+00 -0.00000000000E+00 -0.65742595132E+03  0.65742595132E+03  0.00000000000E+00 0. -1.
         -6    2    1    2    0  503  0.83091348527E+02  0.35252169135E+02 -0.21752041615E+03  0.29161952874E+03  0.17198816957E+03 0.  0.
        -24    2    3    3    0    0  0.12531143112E+03  0.21393090077E+02 -0.15835152786E+03  0.21747334348E+03  0.77838484542E+02 0.  0.
          6    2    1    2  501    0 -0.83091348527E+02 -0.35252169135E+02 -0.38023714545E+03  0.42547481231E+03  0.16823091718E+03 0.  0.
         24    2    5    5    0    0 -0.36612785835E+02  0.44967862592E+02 -0.19548190573E+03  0.21870900545E+03  0.79106566370E+02 0.  0.
          5    1    5    5  501    0 -0.46478562692E+02 -0.80220031727E+02 -0.18475523972E+03  0.20676580686E+03  0.47000000000E+01 0. -1.
        -11    1    6    6    0    0  0.24183364141E+02  0.68216657193E+01 -0.36916457030E+02  0.44656410783E+02  0.00000000000E+00 0.  1.
         12    1    6    6    0    0 -0.60796149976E+02  0.38146196872E+02 -0.15856544870E+03  0.17405259466E+03  0.00000000000E+00 0. -1.
         -5    1    3    3    0  503 -0.42220082596E+02  0.13859079059E+02 -0.59168888293E+02  0.74146185260E+02  0.47000000000E+01 0.  1.
         13    1    4    4    0    0  0.94108013240E+02  0.16955552877E+02 -0.56974270471E+02  0.11130982178E+03  0.00000000000E+00 0. -1.
        -14    1    4    4    0    0  0.31203417883E+02  0.44375371993E+01 -0.10137725739E+03  0.10616352170E+03  0.00000000000E+00 0.  1.
</event>
<event>
12    1  0.8297444E-002  0.1721905E+03  0.7818608E-02  0.1177423E+00
         21   -1    0    0  501  502  0.00000000000E+00  0.00000000000E+00  0.39536337512E+03  0.39536337512E+03  0.00000000000E+00 0. -1.
         21   -1    0    0  502  503 -0.00000000000E+00 -0.00000000000E+00 -0.74160771797E+02  0.74160771797E+02  0.00000000000E+00 0. -1.
         -6    2    1    2    0  503 -0.13921561669E+01 -0.28318762868E+02  0.12347605618E+03  0.21188655394E+03  0.16984017446E+03 0.  0.
        -24    2    3    3    0    0 -0.49876725397E+02 -0.46909143289E+02  0.12175355800E+03  0.15971939284E+03  0.77448047763E+02 0.  0.
          6    2    1    2  501    0  0.13921561669E+01  0.28318762868E+02  0.19772654714E+03  0.25763759298E+03  0.16271893388E+03 0.  0.
         24    2    5    5    0    0 -0.23208915364E+02 -0.27348013337E+02  0.16998355342E+03  0.19058711651E+03  0.78373930372E+02 0.  0.
          5    1    5    5  501    0  0.24601071531E+02  0.55666776205E+02  0.27742993718E+02  0.67050476463E+02  0.47000000000E+01 0. -1.
        -13    1    6    6    0    0  0.94401237147E+01  0.14652428930E+02  0.63951588760E+01  0.18566304596E+02  0.00000000000E+00 0.  1.
         14    1    6    6    0    0 -0.32649039079E+02 -0.42000442267E+02  0.16358839454E+03  0.17202081192E+03  0.00000000000E+00 0. -1.
         -5    1    3    3    0  503  0.48484569230E+02  0.18590380421E+02  0.17224981868E+01  0.52167161103E+02  0.47000000000E+01 0.  1.
         13    1    4    4    0    0 -0.14427500674E+02  0.15517216821E+02  0.36373662843E+01  0.21498074962E+02  0.00000000000E+00 0. -1.
        -14    1    4    4    0    0 -0.35449224722E+02 -0.62426360110E+02  0.11811619171E+03  0.13822131787E+03  0.00000000000E+00 0.  1.
</event>
<event>
12    1  0.8297444E-002  0.1923255E+03  0.7818608E-02  0.1156412E+00
         21   -1    0    0  503  502  0.00000000000E+00  0.00000000000E+00  0.10670032644E+04  0.10670032644E+04  0.00000000000E+00 0.  1.
         21   -1    0    0  501  503 -0.00000000000E+00 -0.00000000000E+00 -0.41750508699E+02  0.41750508699E+02  0.00000000000E+00 0.  1.
          6    2    1    2  501    0 -0.80665542491E+02  0.26804466704E+02  0.28370232255E+03  0.34266882343E+03  0.17236445559E+03 0.  0.
         24    2    3    3    0    0 -0.12170163136E+02  0.25930318925E+02  0.25383767462E+03  0.26779313763E+03  0.80368558503E+02 0.  0.
         -6    2    1    2    0  502  0.80665542491E+02 -0.26804466704E+02  0.74155043319E+03  0.76608494971E+03  0.17252158133E+03 0.  0.
        -24    2    5    5    0    0 -0.26295917395E+00  0.36053032408E+02  0.27743244493E+03  0.29076602035E+03  0.79222640695E+02 0.  0.
          5    1    3    3  501    0 -0.68495379355E+02  0.87414777866E+00  0.29864647926E+02  0.74875685793E+02  0.47000000000E+01 0. -1.
        -11    1    4    4    0    0 -0.44815846504E+02  0.20798717787E+01  0.13018086870E+03  0.13769475131E+03  0.00000000000E+00 0.  1.
         12    1    4    4    0    0  0.32645683368E+02  0.23850447146E+02  0.12365680593E+03  0.13009838632E+03  0.00000000000E+00 0. -1.
         -5    1    5    5    0  502  0.80928501665E+02 -0.62857499112E+02  0.46411798826E+03  0.47531892936E+03  0.47000000000E+01 0.  1.
         11    1    6    6    0    0 -0.83577787007E+01 -0.13215986593E+02  0.18543179916E+03  0.18608994305E+03  0.00000000000E+00 0. -1.
        -12    1    6    6    0    0  0.80948195267E+01  0.49269019001E+02  0.92000645773E+02  0.10467607730E+03  0.00000000000E+00 0.  1.
</event>
<event>
12    1  0.8297444E-002  0.2059417E+03  0.7818608E-02  0.1145095E+00
         21   -1    0    0  503  502  0.00000000000E+00  0.00000000000E+00  0.19710091948E+03  0.19710091948E+03  0.00000000000E+00 0. -1.
         21   -1    0    0  501  503 -0.00000000000E+00 -0.00000000000E+00 -0.36452019905E+03  0.36452019905E+03  0.00000000000E+00 0.  1.
          6    2    1    2  501    0 -0.10745386598E+03 -0.26135270392E+02 -0.26445237437E+03  0.33518211364E+03  0.17373141721E+03 0.  0.
         24    2    3    3    0    0 -0.89732851354E+02 -0.29655842060E+02 -0.80180914246E+02  0.14996740094E+03  0.84438076460E+02 0.  0.
         -6    2    1    2    0  502  0.10745386598E+03  0.26135270392E+02  0.97033094801E+02  0.22643900488E+03  0.17213313385E+03 0.  0.
        -24    2    5    5    0    0  0.19992841663E+01 -0.26182740452E+02  0.21056161580E+02  0.86251888971E+02  0.79413433221E+02 0.  0.
          5    1    3    3  501    0 -0.17721014628E+02  0.35205716679E+01 -0.18427146012E+03  0.18521471270E+03  0.47000000000E+01 0. -1.
        -13    1    4    4    0    0 -0.33041776653E+02 -0.49378823703E+02 -0.64981416643E+02  0.88048916765E+02  0.00000000000E+00 0.  1.
         14    1    4    4    0    0 -0.56691074701E+02  0.19722981643E+02 -0.15199497603E+02  0.61918484179E+02  0.00000000000E+00 0. -1.
         -5    1    5    5    0  502  0.10545458182E+03  0.52318010844E+02  0.75976933221E+02  0.14018711591E+03  0.47000000000E+01 0.  1.
         13    1    6    6    0    0  0.39385575861E+02 -0.22337796591E+02  0.17337265087E+02  0.48484858494E+02  0.00000000000E+00 0. -1.
        -14    1    6    6    0    0 -0.37386291695E+02 -0.38449438607E+01  0.37188964928E+01  0.37767030478E+02  0.00000000000E+00 0.  1.
</event>
<event>
12    1  0.8297444E-002  0.2002957E+03  0.7818608E-02  0.1150328E+00
         21   -1    0    0  501  502  0.00000000000E+00  0.00000000000E+00  0.16410698402E+03  0.16410698402E+03  0.00000000000E+00 0.  1.
         21   -1    0    0  502  503 -0.00000000000E+00 -0.00000000000E+00 -0.23978067130E+03  0.23978067130E+03  0.00000000000E+00 0.  1.
         -6    2    1    2    0  503  0.56688066072E+02  0.76966399181E+02 -0.41565980418E+02  0.20070864626E+03  0.17151928905E+03 0.  0.
        -24    2    3    3    0    0  0.27396025784E+02  0.94002318078E+02  0.21268830181E+02  0.12916460682E+03  0.81511683113E+02 0.  0.
          6    2    1    2  501    0 -0.56688066072E+02 -0.76966399181E+02 -0.34107706863E+02  0.20317900906E+03  0.17601423413E+03 0.  0.
         24    2    5    5    0    0 -0.27391251515E+02 -0.26627733435E+01  0.41376980792E+02  0.93181917162E+02  0.78825402791E+02 0.  0.
          5    1    5    5  501    0 -0.29296814557E+02 -0.74303625837E+02 -0.75484687655E+02  0.10999709190E+03  0.47000000000E+01 0. -1.
        -13    1    6    6    0    0  0.22994860554E+02 -0.15163601116E+02  0.12587936026E+01  0.27573229263E+02  0.00000000000E+00 0.  1.
         14    1    6    6    0    0 -0.50386112069E+02  0.12500827772E+02  0.40118187189E+02  0.65608687898E+02  0.00000000000E+00 0. -1.
         -5    1    3    3    0  503  0.29292040289E+02 -0.17035918897E+02 -0.62834810599E+02  0.71544039444E+02  0.47000000000E+01 0.  1.
         11    1    4    4    0    0  0.21497045369E+02 -0.93252743106E+01  0.83014572482E+01  0.24859563412E+02  0.00000000000E+00 0. -1.
        -12    1    4    4    0    0  0.58989804143E+01  0.10332759239E+03  0.12967372933E+02  0.10430504340E+03  0.00000000000E+00 0.  1.
</event>
<event>
12    1  0.8297444E-002  0.1987336E+03  0.7818608E-02  0.1151412E+00
         21   -1    0    0  501  502  0.00000000000E+00  0.00000000000E+00  0.85367407977E+02  0.85367407977E+02  0.00000000000E+00 0.  1.
         21   -1    0    0  502  503 -0.00000000000E+00 -0.00000000000E+00 -0.47582324047E+03  0.47582324047E+03  0.00000000000E+00 0. -1.
         -6    2    1    2    0  503 -0.16052360302E+02 -0.98674064091E+02 -0.13685480061E+03  0.23899733674E+03  0.16851184328E+03 0.  0.
        -24    2    3    3    0    0  0.52651658961E+02 -0.64093241302E+02 -0.10276445498E+03  0.15473395660E+03  0.80634504690E+02 0.  0.
          6    2    1    2  501    0  0.16052360302E+02  0.98674064091E+02 -0.25360103189E+03  0.32219331171E+03  0.17175796208E+03 0.  0.
         24    2    5    5    0    0  0.57843887684E+02  0.33537963340E+01 -0.13076671741E+03  0.16112548743E+03  0.74191138441E+02 0.  0.
          5    1    5    5  501    0 -0.41791527382E+02  0.95320267757E+02 -0.12283431448E+03  0.16106782428E+03  0.47000000000E+01 0. -1.
        -13    1    6    6    0    0  0.60270002073E+02  0.29825409074E+02 -0.99397044887E+02  0.12000750272E+03  0.00000000000E+00 0.  1.
         14    1    6    6    0    0 -0.24261143892E+01 -0.26471612740E+02 -0.31369672524E+02  0.41117984707E+02  0.00000000000E+00 0. -1.
         -5    1    3    3    0  503 -0.68704019263E+02 -0.34580822789E+02 -0.34090345627E+02  0.84263380140E+02  0.47000000000E+01 0.  1.
         13    1    4    4    0    0  0.23237715553E+02 -0.43503103460E+02 -0.10773432681E+03  0.11848711579E+03  0.00000000000E+00 0. -1.
        -14    1    4    4    0    0  0.29413943407E+02 -0.20590137842E+02  0.49698718276E+01  0.36246840815E+02  0.00000000000E+00 0.  1.
</event>
<event>
12    1  0.8297444E-002  0.2097482E+03  0.7818608E-02  0.1142046E+00
         21   -1    0    0  501  502  0.00000000000E+00  0.00000000000E+00  0.11143676565E+03  0.11143676565E+03  0.00000000000E+00 0. -1.
         21   -1    0    0  502  503 -0.00000000000E+00 -0.00000000000E+00 -0.39228654550E+03  0.39228654550E+03  0.00000000000E+00 0.  1.
         -6    2    1    2    0  503  0.91147790806E+02 -0.76068249770E+02 -0.13519382901E+03  0.24836085840E+03  0.17120585910E+03 0.  0.
        -24    2    3    3    0    0  0.45060307768E+02 -0.23774454064E+02 -0.14993509791E+03  0.17695993284E+03  0.78984987458E+02 0.  0.
          6    2    1    2  501    0 -0.91147790806E+02  0.76068249770E+02 -0.14565595084E+03  0.25536245275E+03  0.17291624525E+03 0.  0.
         24    2    5    5    0    0 -0.67946279746E+02  0.65685372604E+02 -0.17641476283E+03  0.21518399125E+03  0.79061472527E+02 0.  0.
          5    1    5    5  501    0 -0.23201511061E+02  0.10382877166E+02  0.30758811995E+02  0.40178461507E+02  0.47000000000E+01 0. -1.
        -13    1    6    6    0    0 -0.79482282611E+02  0.67128912426E+02 -0.12577625270E+03  0.16322803030E+03  0.00000000000E+00 0.  1.
         14    1    6    6    0    0  0.11536002865E+02 -0.14435398220E+01 -0.50638510135E+02  0.51955960948E+02  0.00000000000E+00 0. -1.
         -5    1    3    3    0  503  0.46087483038E+02 -0.52293795706E+02  0.14741268896E+02  0.71400925560E+02  0.47000000000E+01 0.  1.
         13    1    4    4    0    0  0.13570343971E+01  0.22875871901E+02 -0.14288137109E+02  0.27005516467E+02  0.00000000000E+00 0. -1.
        -14    1    4    4    0    0  0.43703273371E+02 -0.46650325965E+02 -0.13564696080E+03  0.14995441637E+03  0.00000000000E+00 0.  1.
</event>
<event>
12    1  0.8297444E-002  0.1738542E+03  0.7818608E-02  0.1177320E+00
         21   -1    0    0  501  502  0.00000000000E+00  0.00000000000E+00  0.91640512766E+02  0.91640512766E+02  0.00000000000E+00 0.  1.
         21   -1    0    0  502  503 -0.00000000000E+00 -0.00000000000E+00 -0.36210206444E+03  0.36210206444E+03  0.00000000000E+00 0.  1.
         -6    2    1    2    0  503 -0.20938545812E+02  0.40436744074E+01 -0.22034833303E+03  0.27280992072E+03  0.15942738464E+03 0.  0.
        -24    2    3    3    0    0 -0.51307789513E+02  0.75846555135E+01 -0.67489648152E+02  0.11685256420E+03  0.80060307827E+02 0.  0.
          6    2    1    2  501    0  0.20938545812E+02 -0.40436744074E+01 -0.50113218646E+02  0.18093265648E+03  0.17254135010E+03 0.  0.
         24    2    5    5    0    0  0.53757106801E+02  0.36298715063E+02  0.68073475506E+01  0.10368883997E+03  0.80607768278E+02 0.  0.
          5    1    5    5  501    0 -0.32818560989E+02 -0.40342389470E+02 -0.56920566196E+02  0.77243816514E+02  0.47000000000E+01 0. -1.
        -13    1    6    6    0    0 -0.93741756669E+01 -0.12584633256E+02  0.17070698948E+02  0.23187430349E+02  0.00000000000E+00 0.  1.
         14    1    6    6    0    0  0.63131282468E+02  0.48883348319E+02 -0.10263351398E+02  0.80501409620E+02  0.00000000000E+00 0. -1.
         -5    1    3    3    0  503  0.30369243701E+02 -0.35409811061E+01 -0.15285868488E+03  0.15595735652E+03  0.47000000000E+01 0.  1.
         13    1    4    4    0    0 -0.65737165496E+02 -0.16076784392E+02 -0.47419374790E+02  0.82634345337E+02  0.00000000000E+00 0. -1.
        -14    1    4    4    0    0  0.14429375982E+02  0.23661439905E+02 -0.20070273362E+02  0.34218218867E+02  0.00000000000E+00 0.  1.
</event>
<event>
12    1  0.8297444E-002  0.1774499E+03  0.7818608E-02  0.1170353E+00
         21   -1    0    0  501  502  0.00000000000E+00  0.00000000000E+00  0.79371572893E+02  0.79371572893E+02  0.00000000000E+00 0.  1.
         21   -1    0    0  502  503 -0.00000000000E+00 -0.00000000000E+00 -0.49309069561E+03  0.49309069561E+03  0.00000000000E+00 0.  1.
         -6    2    1    2    0  503  0.36949621623E+02 -0.69771186347E+00 -0.33363618138E+03  0.37777860626E+03  0.17331420161E+03 0.  0.
        -24    2    3    3    0    0  0.39955851489E+02 -0.39786881379E+02 -0.14410001184E+03  0.18417320820E+03  0.99877380872E+02 0.  0.
          6    2    1    2  501    0 -0.36949621623E+02  0.69771186347E+00 -0.80082941334E+02  0.19468366224E+03  0.17355889350E+03 0.  0.
         24    2    5    5    0    0 -0.26959132531E+02  0.66565337174E+02 -0.66778583333E+02  0.12658483789E+03  0.80041258437E+02 0.  0.
          5    1    5    5  501    0 -0.99904890924E+01 -0.65867625310E+02 -0.13304358001E+02  0.68098824352E+02  0.47000000000E+01 0. -1.
        -11    1    6    6    0    0  0.23321874680E+02  0.36491664235E+02 -0.88681200325E+01  0.44206277271E+02  0.00000000000E+00 0.  1.
         12    1    6    6    0    0 -0.50281007211E+02  0.30073672939E+02 -0.57910463301E+02  0.82378560620E+02  0.00000000000E+00 0. -1.
         -5    1    3    3    0  503 -0.30062298654E+01  0.39089169515E+02 -0.18953616954E+03  0.19360539806E+03  0.47000000000E+01 0.  1.
         13    1    4    4    0    0 -0.25501731130E+01  0.31541952872E+02 -0.41176574181E+02  0.51931767110E+02  0.00000000000E+00 0. -1.
        -14    1    4    4    0    0  0.42506024602E+02 -0.71328834251E+02 -0.10292343766E+03  0.13224144109E+03  0.00000000000E+00 0.  1.
</event>
<event>
12    1  0.8297444E-002  0.1897812E+03  0.7818608E-02  0.1159202E+00
         21   -1    0    0  501  502  0.00000000000E+00  0.00000000000E+00  0.31817344144E+02  0.31817344144E+02  0.00000000000E+00 0. -1.
         21   -1    0    0  502  503 -0.00000000000E+00 -0.00000000000E+00 -0.12308501454E+04  0.12308501454E+04  0.00000000000E+00 0.  1.
         -6    2    1    2    0  503  0.54818345146E+02  0.57198634295E+02 -0.79432097501E+03  0.81667785108E+03  0.17245337447E+03 0.  0.
        -24    2    3    3    0    0  0.58645886194E+02  0.61870922106E+02 -0.29378777021E+03  0.31608614175E+03  0.79572885508E+02 0.  0.
          6    2    1    2  501    0 -0.54818345146E+02 -0.57198634295E+02 -0.40471182625E+03  0.44598963847E+03  0.16981861084E+03 0.  0.
         24    2    5    5    0    0 -0.87420409159E+02 -0.38189765085E+00 -0.21569182418E+03  0.24588544731E+03  0.79336097676E+02 0.  0.
          5    1    5    5  501    0  0.32602064013E+02 -0.56816736645E+02 -0.18902000206E+03  0.20010419116E+03  0.47000000000E+01 0. -1.
        -11    1    6    6    0    0 -0.35499232331E+02 -0.30639547629E+02 -0.14856068615E+03  0.15578592634E+03  0.00000000000E+00 0.  1.
         12    1    6    6    0    0 -0.51921176827E+02  0.30257649978E+02 -0.67131138027E+02  0.90099520965E+02  0.00000000000E+00 0. -1.
         -5    1    3    3    0  503 -0.38275410485E+01 -0.46722878105E+01 -0.50053320480E+03  0.50059170933E+03  0.47000000000E+01 0.  1.
         13    1    4    4    0    0  0.35094691514E+02  0.58927808733E+02 -0.28075035672E+03  0.28900672451E+03  0.00000000000E+00 0. -1.
        -14    1    4    4    0    0  0.23551194680E+02  0.29431133728E+01 -0.13037413491E+02  0.27079417233E+02  0.00000000000E+00 0.  1.
</event>
<event>
12    1  0.8297444E-002  0.2541637E+03  0.7818608E-02  0.1111278E+00
         21   -1    0    0  503  502  0.00000000000E+00  0.00000000000E+00  0.80875067987E+03  0.80875067987E+03  0.00000000000E+00 0.  1.
         21   -1    0    0  501  503 -0.00000000000E+00 -0.00000000000E+00 -0.14650858353E+03  0.14650858353E+03  0.00000000000E+00 0. -1.
          6    2    1    2  501    0  0.13481735845E+03 -0.12181357994E+03  0.75302882366E+01  0.25427519343E+03  0.17772141220E+03 0.  0.
         24    2    3    3    0    0  0.89152535352E+01 -0.35916445770E+02 -0.37343892918E+02  0.95324132355E+02  0.79515099501E+02 0.  0.
         -6    2    1    2    0  502 -0.13481735845E+03  0.12181357994E+03  0.65471180810E+03  0.70098406997E+03  0.17238574852E+03 0.  0.
        -24    2    5    5    0    0 -0.82368569643E+02  0.51046307096E+02  0.19036151290E+03  0.22832968355E+03  0.80663697306E+02 0.  0.
          5    1    3    3  501    0  0.12590210491E+03 -0.85897134175E+02  0.44874181155E+02  0.15895106107E+03  0.47000000000E+01 0. -1.
        -11    1    4    4    0    0  0.21223007438E+02  0.20388190482E+02 -0.72642438170E+01  0.30312762891E+02  0.00000000000E+00 0.  1.
         12    1    4    4    0    0 -0.12307753903E+02 -0.56304636252E+02 -0.30079649101E+02  0.65011369464E+02  0.00000000000E+00 0. -1.
         -5    1    5    5    0  502 -0.52448788806E+02  0.70767272849E+02  0.46435029520E+03  0.47265438642E+03  0.47000000000E+01 0.  1.
         11    1    6    6    0    0 -0.25768626322E+01 -0.16513901182E+02  0.53827931169E+02  0.56363067049E+02  0.00000000000E+00 0. -1.
        -12    1    6    6    0    0 -0.79791707011E+02  0.67560208277E+02  0.13653358173E+03  0.17196661650E+03  0.00000000000E+00 0.  1.
</event>
<event>
12    1  0.8297444E-002  0.1918021E+03  0.7818608E-02  0.1158345E+00
         21   -1    0    0  503  502  0.00000000000E+00  0.00000000000E+00  0.49836755246E+03  0.49836755246E+03  0.00000000000E+00 0.  1.
         21   -1    0    0  501  503 -0.00000000000E+00 -0.00000000000E+00 -0.26854438404E+03  0.26854438404E+03  0.00000000000E+00 0.  1.
          6    2    1    2  501    0 -0.57919140163E+02 -0.40488364247E+02 -0.21424407043E+03  0.28319326465E+03  0.17118402084E+03 0.  0.
         24    2    3    3    0    0 -0.33689250093E+02 -0.67650659202E+01 -0.22762371508E+03  0.23931327703E+03  0.65403036660E+02 0.  0.
         -6    2    1    2    0  502  0.57919140163E+02  0.40488364247E+02  0.44406723885E+03  0.48371867184E+03  0.17830901949E+03 0.  0.
        -24    2    5    5    0    0  0.60427211485E+02  0.65103319232E+02  0.16409606403E+03  0.20261702624E+03  0.78969937499E+02 0.  0.
          5    1    3    3  501    0 -0.24229890070E+02 -0.33723298327E+02  0.13379644648E+02  0.43879987623E+02  0.47000000000E+01 0. -1.
        -13    1    4    4    0    0 -0.25174728679E+02 -0.32115209393E+02 -0.86039940646E+02  0.95226178254E+02  0.00000000000E+00 0.  1.
         14    1    4    4    0    0 -0.85145214138E+01  0.25350143473E+02 -0.14158377444E+03  0.14408709877E+03  0.00000000000E+00 0. -1.
         -5    1    5    5    0  502 -0.25080713228E+01 -0.24614954985E+02  0.27997117482E+03  0.28110164561E+03  0.47000000000E+01 0.  1.
         13    1    6    6    0    0  0.36655473181E+02  0.47300682311E+02  0.16216665740E+03  0.17285543970E+03  0.00000000000E+00 0. -1.
        -14    1    6    6    0    0  0.23771738305E+02  0.17802636921E+02  0.19294066289E+01  0.29761586539E+02  0.00000000000E+00 0.  1.
</event>
<event>
12    1  0.8297444E-002  0.1912836E+03  0.7818608E-02  0.1158006E+00
         21   -1    0    0  501  502  0.00000000000E+00  0.00000000000E+00  0.24171403897E+03  0.24171403897E+03  0.00000000000E+00 0.  1.
         21   -1    0    0  502  503 -0.00000000000E+00 -0.00000000000E+00 -0.25997870501E+03  0.25997870501E+03  0.00000000000E+00 0.  1.
         -6    2    1    2    0  503  0.13539503674E+02 -0.81585029719E+02 -0.17302509473E+03  0.25564357283E+03  0.16904590410E+03 0.  0.
        -24    2    3    3    0    0  0.56515471913E+02 -0.12150597406E+01 -0.93511434002E+02  0.13460317395E+03  0.78601216352E+02 0.  0.
          6    2    1    2  501    0 -0.13539503674E+02  0.81585029719E+02  0.15476042868E+03  0.24604917115E+03  0.17248179354E+03 0.  0.
         24    2    5    5    0    0 -0.23355870793E+02 -0.22767465529E+02  0.75083562868E+02  0.11430587047E+03  0.79777418010E+02 0.  0.
          5    1    5    5  501    0  0.98163671194E+01  0.10435249525E+03  0.79676865816E+02  0.13174330068E+03  0.47000000000E+01 0. -1.
        -13    1    6    6    0    0 -0.46369681534E+02 -0.12236200087E+02  0.74970223557E+02  0.88996664985E+02  0.00000000000E+00 0.  1.
         14    1    6    6    0    0  0.23013810741E+02 -0.10531265442E+02  0.11333931087E+00  0.25309205488E+02  0.00000000000E+00 0. -1.
         -5    1    3    3    0  503 -0.42975968239E+02 -0.80369969978E+02 -0.79513660723E+02  0.12104039888E+03  0.47000000000E+01 0.  1.
         11    1    4    4    0    0  0.19192592614E+02 -0.38221874167E+02 -0.30406677840E+02  0.52476979080E+02  0.00000000000E+00 0. -1.
        -12    1    4    4    0    0  0.37322879299E+02  0.37006814427E+02 -0.63104756162E+02  0.82126194868E+02  0.00000000000E+00 0.  1.
</event>
<event>
12    1  0.8297444E-002  0.2594398E+03  0.7818608E-02  0.1107820E+00
         21   -1    0    0  501  502  0.00000000000E+00  0.00000000000E+00  0.11324760173E+03  0.11324760173E+03  0.00000000000E+00 0.  1.
         21   -1    0    0  502  503 -0.00000000000E+00 -0.00000000000E+00 -0.59224177913E+03  0.59224177913E+03  0.00000000000E+00 0.  1.
         -6    2    1    2    0  503 -0.17182930776E+03 -0.80375594905E+02 -0.26571021229E+03  0.37136357435E+03  0.17698429359E+03 0.  0.
        -24    2    3    3    0    0 -0.11266719182E+03  0.22047954248E+02 -0.12161398325E+03  0.18487884949E+03  0.78804946969E+02 0.  0.
          6    2    1    2  501    0  0.17182930776E+03  0.80375594905E+02 -0.21328396511E+03  0.33412580650E+03  0.17367917991E+03 0.  0.
         24    2    5    5    0    0  0.17632295865E+03  0.11291273610E+03 -0.18662725917E+03  0.29156375267E+03  0.79627986818E+02 0.  0.
          5    1    5    5  501    0 -0.44936508833E+01 -0.32537141192E+02 -0.26656705934E+02  0.42562053833E+02  0.47000000000E+01 0. -1.
        -13    1    6    6    0    0  0.34553633236E+01  0.31331905250E+02 -0.16062901372E+02  0.35378589893E+02  0.00000000000E+00 0.  1.
         14    1    6    6    0    0  0.17286759532E+03  0.81580830847E+02 -0.17056435780E+03  0.25618516278E+03  0.00000000000E+00 0. -1.
         -5    1    3    3    0  503 -0.59162115943E+02 -0.10242354915E+03 -0.14409622904E+03  0.18648472486E+03  0.47000000000E+01 0.  1.
         11    1    4    4    0    0 -0.48402898497E+02 -0.11227743685E+02 -0.82252416682E+01  0.50364247355E+02  0.00000000000E+00 0. -1.
        -12    1    4    4    0    0 -0.64264293322E+02  0.33275697933E+02 -0.11338874158E+03  0.13451460213E+03  0.00000000000E+00 0.  1.
</event>
<event>
12    1  0.8297444E-002  0.2180410E+03  0.7818608E-02  0.1135706E+00
         21   -1    0    0  503  502  0.00000000000E+00  0.00000000000E+00  0.29527454003E+03  0.29527454003E+03  0.00000000000E+00 0. -1.
         21   -1    0    0  501  503 -0.00000000000E+00 -0.00000000000E+00 -0.16357485625E+03  0.16357485625E+03  0.00000000000E+00 0. -1.
          6    2    1    2  501    0  0.11481294607E+03 -0.66893366027E+02  0.10174555527E+03  0.24061175180E+03  0.17287313870E+03 0.  0.
         24    2    3    3    0    0  0.39929205146E+02 -0.90446968707E+02  0.21260765213E+02  0.12808514035E+03  0.78605263628E+02 0.  0.
         -6    2    1    2    0  502 -0.11481294607E+03  0.66893366027E+02  0.29954128511E+02  0.21823764447E+03  0.17051007197E+03 0.  0.
        -24    2    5    5    0    0 -0.61727486783E+02  0.88518437057E+02 -0.20128547407E+02  0.14197445471E+03  0.90032166730E+02 0.  0.
          5    1    3    3  501    0  0.74883740927E+02  0.23553602680E+02  0.80484790054E+02  0.11252661145E+03  0.47000000000E+01 0. -1.
        -11    1    4    4    0    0  0.59682567018E+02 -0.60316965328E+02 -0.25636251538E+01  0.84892386503E+02  0.00000000000E+00 0.  1.
         12    1    4    4    0    0 -0.19753361872E+02 -0.30130003380E+02  0.23824390366E+02  0.43192753851E+02  0.00000000000E+00 0. -1.
         -5    1    5    5    0  502 -0.53085459290E+02 -0.21625071030E+02  0.50082675918E+02  0.76263189759E+02  0.47000000000E+01 0.  1.
         13    1    6    6    0    0 -0.51855923592E+02  0.35917986578E+01  0.65951875317E+01  0.52396892349E+02  0.00000000000E+00 0. -1.
        -14    1    6    6    0    0 -0.98715631901E+01  0.84926638400E+02 -0.26723734938E+02  0.89577562362E+02  0.00000000000E+00 0.  1.
</event>
<event>
12    1  0.8297444E-002  0.2193016E+03  0.7818608E-02  0.1134946E+00
         21   -1    0    0  503  502  0.00000000000E+00  0.00000000000E+00  0.16190287416E+03  0.16190287416E+03  0.00000000000E+00 0. -1.
         21   -1    0    0  501  503 -0.00000000000E+00 -0.00000000000E+00 -0.30635755110E+03  0.30635755110E+03  0.00000000000E+00 0. -1.
          6    2    1    2  501    0 -0.34826063297E+02  0.13224033206E+03 -0.12034134186E+03  0.24763714488E+03  0.16775505016E+03 0.  0.
         24    2    3    3    0    0 -0.78834727839E+02  0.80526628826E+02 -0.45817409134E+02  0.14670659347E+03  0.82000837347E+02 0.  0.
         -6    2    1    2    0  502  0.34826063297E+02 -0.13224033206E+03 -0.24113335071E+02  0.22062328038E+03  0.17144333994E+03 0.  0.
        -24    2    5    5    0    0  0.83162059234E+02 -0.13591062141E+03 -0.17115255435E+02  0.17142061129E+03  0.60864348330E+02 0.  0.
          5    1    3    3  501    0  0.44008664542E+02  0.51713703235E+02 -0.74523932727E+02  0.10093055140E+03  0.47000000000E+01 0. -1.
        -13    1    4    4    0    0 -0.59634839717E+02  0.75737902436E+02 -0.67248713247E+02  0.11753694486E+03  0.00000000000E+00 0.  1.
         14    1    4    4    0    0 -0.19199888122E+02  0.47887263905E+01  0.21431304113E+02  0.29169648615E+02  0.00000000000E+00 0. -1.
         -5    1    5    5    0  502 -0.48335995937E+02  0.36702893527E+01 -0.69980796360E+01  0.49202669092E+02  0.47000000000E+01 0.  1.
         13    1    6    6    0    0  0.80360702023E+02 -0.13288092571E+03 -0.15298040548E+01  0.15529817497E+03  0.00000000000E+00 0. -1.
        -14    1    6    6    0    0  0.28013572106E+01 -0.30296957012E+01 -0.15585451380E+02  0.16122436323E+02  0.00000000000E+00 0.  1.
</event>
<event>
12    1  0.8297444E-002  0.2384687E+03  0.7818608E-02  0.1120929E+00
         21   -1    0    0  501  502  0.00000000000E+00  0.00000000000E+00  0.97271151324E+03  0.97271151324E+03  0.00000000000E+00 0. -1.
         21   -1    0    0  502  503 -0.00000000000E+00 -0.00000000000E+00 -0.77534287102E+02  0.77534287102E+02  0.00000000000E+00 0.  1.
         -6    2    1    2    0  503 -0.83603134269E+02 -0.14153777830E+03  0.70866833786E+03  0.74750350671E+03  0.17183786754E+03 0.  0.
        -24    2    3    3    0    0  0.21223285443E+02 -0.25685944157E+02  0.24137813974E+03  0.25476377318E+03  0.74370546647E+02 0.  0.
          6    2    1    2  501    0  0.83603134269E+02  0.14153777830E+03  0.18650888828E+03  0.30274229363E+03  0.17275677758E+03 0.  0.
         24    2    5    5    0    0  0.21044085000E+02  0.12928780156E+03  0.68048992122E+02  0.16813719130E+03  0.80506276921E+02 0.  0.
          5    1    5    5  501    0  0.62559049269E+02  0.12249976734E+02  0.11845989616E+03  0.13460510233E+03  0.47000000000E+01 0. -1.
        -13    1    6    6    0    0  0.37618628114E+02  0.18861830450E+02  0.17969944370E+02  0.45758591869E+02  0.00000000000E+00 0.  1.
         14    1    6    6    0    0 -0.16574543114E+02  0.11042597111E+03  0.50079047752E+02  0.12237859943E+03  0.00000000000E+00 0. -1.
         -5    1    3    3    0  503 -0.10482641971E+03 -0.11585183414E+03  0.46729019812E+03  0.49273973353E+03  0.47000000000E+01 0.  1.
         13    1    4    4    0    0 -0.17248093996E+02 -0.27053376790E+02  0.17594710950E+03  0.17884844781E+03  0.00000000000E+00 0. -1.
        -14    1    4    4    0    0  0.38471379440E+02  0.13674326335E+01  0.65431030239E+02  0.75915325371E+02  0.00000000000E+00 0.  1.
</event>
<event>
12    1  0.8297444E-002  0.1755724E+03  0.7818608E-02  0.1172230E+00
         21   -1    0    0  501  502  0.00000000000E+00  0.00000000000E+00  0.70616824445E+03  0.70616824445E+03  0.00000000000E+00 0. -1.
         21   -1    0    0  502  503 -0.00000000000E+00 -0.00000000000E+00 -0.68669043119E+02  0.68669043119E+02  0.00000000000E+00 0. -1.
         -6    2    1    2    0  503  0.17053959980E+02  0.31066332882E+02  0.84408397595E+02  0.19454846512E+03  0.17166354624E+03 0.  0.
        -24    2    3    3    0    0  0.58313225030E+02 -0.11458066944E+02  0.96358191594E+02  0.13392224052E+03  0.71544013770E+02 0.  0.
          6    2    1    2  501    0 -0.17053959980E+02 -0.31066332882E+02  0.55309080373E+03  0.58028882245E+03  0.17195849991E+03 0.  0.
         24    2    5    5    0    0 -0.25903768880E+01 -0.27798434901E+02  0.12175736321E+03  0.14867498890E+03  0.80622166889E+02 0.  0.
          5    1    5    5  501    0 -0.14463583092E+02 -0.32678979802E+01  0.43133344053E+03  0.43161383355E+03  0.47000000000E+01 0. -1.
        -13    1    6    6    0    0 -0.32737746264E+02  0.12346456889E+02  0.54019954138E+02  0.64361094407E+02  0.00000000000E+00 0.  1.
         14    1    6    6    0    0  0.30147369376E+02 -0.40144891791E+02  0.67737409069E+02  0.84313894493E+02  0.00000000000E+00 0. -1.
         -5    1    3    3    0  503 -0.41259265049E+02  0.42524399826E+02 -0.11949793999E+02  0.60626224603E+02  0.47000000000E+01 0.  1.
         11    1    4    4    0    0  0.58624573609E+02  0.19447456252E+02  0.58761297420E+02  0.85252180383E+02  0.00000000000E+00 0. -1.
        -12    1    4    4    0    0 -0.31134857972E+00 -0.30905523196E+02  0.37596894175E+02  0.48670060135E+02  0.00000000000E+00 0.  1.
</event>
<event>
12    1  0.8297444E-002  0.1871668E+03  0.7818608E-02  0.1161382E+00
         21   -1    0    0  503  502  0.00000000000E+00  0.00000000000E+00  0.68329689181E+03  0.68329689181E+03  0.00000000000E+00 0. -1.
         21   -1    0    0  501  503 -0.00000000000E+00 -0.00000000000E+00 -0.17132460539E+03  0.17132460539E+03  0.00000000000E+00 0. -1.
          6    2    1    2  501    0 -0.24412123978E+02 -0.65460350424E+02 -0.10201865695E+03  0.21316476777E+03  0.17363871278E+03 0.  0.
         24    2    3    3    0    0 -0.52377257514E+01  0.23430537164E+02 -0.90273276141E+02  0.12135359517E+03  0.77466165726E+02 0.  0.
         -6    2    1    2    0  502  0.24412123978E+02  0.65460350424E+02  0.61399094338E+03  0.64145672943E+03  0.17204896949E+03 0.  0.
        -24    2    5    5    0    0  0.29967553119E+02  0.10282553877E+03  0.55645280096E+03  0.57246580302E+03  0.81278719677E+02 0.  0.
          5    1    3    3  501    0 -0.19174398226E+02 -0.88890887588E+02 -0.11745380814E+02  0.91811172599E+02  0.47000000000E+01 0. -1.
        -11    1    4    4    0    0 -0.31105040845E+02  0.36731118911E+02 -0.37198102292E+02  0.60830892453E+02  0.00000000000E+00 0.  1.
         12    1    4    4    0    0  0.25867315094E+02 -0.13300581747E+02 -0.53075173848E+02  0.60522702715E+02  0.00000000000E+00 0. -1.
         -5    1    5    5    0  502 -0.55554291418E+01 -0.37365188347E+02  0.57538142420E+02  0.68990926406E+02  0.47000000000E+01 0.  1.
         11    1    6    6    0    0  0.46116778092E+02  0.78957078532E+02  0.50740639308E+03  0.51557950426E+03  0.00000000000E+00 0. -1.
        -12    1    6    6    0    0 -0.16149224973E+02  0.23868460239E+02  0.49046407876E+02  0.56886298763E+02  0.00000000000E+00 0.  1.
</event>
<event>
12    1  0.8297444E-002  0.2211666E+03  0.7818608E-02  0.1133200E+00
         21   -1    0    0  501  502  0.00000000000E+00  0.00000000000E+00  0.14907525726E+04  0.14907525726E+04  0.00000000000E+00 0.  1.
         21   -1    0    0  502  503 -0.00000000000E+00 -0.00000000000E+00 -0.47967843411E+02  0.47967843411E+02  0.00000000000E+00 0.  1.
         -6    2    1    2    0  503  0.12611090108E+03 -0.50995514266E+02  0.11548360250E+04  0.11756376351E+04  0.17312741728E+03 0.  0.
        -24    2    3    3    0    0  0.13358717968E+03 -0.55906815039E+02  0.11536175830E+04  0.11654597071E+04  0.80571052396E+02 0.  0.
          6    2    1    2  501    0 -0.12611090108E+03  0.50995514266E+02  0.28794870422E+03  0.36308278093E+03  0.17438505583E+03 0.  0.
         24    2    5    5    0    0  0.17930459285E+02  0.24891164930E+02  0.54630521662E+02  0.87603535135E+02  0.61227559230E+02 0.  0.
          5    1    5    5  501    0 -0.14404136037E+03  0.26104349337E+02  0.23331818256E+03  0.27547924579E+03  0.47000000000E+01 0. -1.
        -13    1    6    6    0    0  0.38084174997E+02  0.78423810023E+01  0.19047562233E+02  0.43298001709E+02  0.00000000000E+00 0.  1.
         14    1    6    6    0    0 -0.20153715712E+02  0.17048783927E+02  0.35582959430E+02  0.44305533426E+02  0.00000000000E+00 0. -1.
         -5    1    3    3    0  503 -0.74762786045E+01  0.49113007722E+01  0.12184419401E+01  0.10177927972E+02  0.47000000000E+01 0.  1.
         11    1    4    4    0    0  0.93776500193E+02 -0.58547019070E+02  0.57907162911E+03  0.58953009853E+03  0.00000000000E+00 0. -1.
        -12    1    4    4    0    0  0.39810679492E+02  0.26402040312E+01  0.57454595394E+03  0.57592960860E+03  0.00000000000E+00 0.  1.
</event>
<event>
12    1  0.8297444E-002  0.1850600E+03  0.7818608E-02  0.1163063E+00
         21   -1    0    0  501  502  0.00000000000E+00  0.00000000000E+00  0.22374590960E+03  0.22374590960E+03  0.00000000000E+00 0. -1.
         21   -1    0    0  502  503 -0.00000000000E+00 -0.00000000000E+00 -0.33245982209E+03  0.33245982209E+03  0.00000000000E+00 0. -1.
         -6    2    1    2    0  503 -0.62218603637E+02  0.24228134225E+02 -0.25876414873E+03  0.31795734704E+03  0.17227835832E+03 0.  0.
        -24    2    3    3    0    0  0.17290556281E+02 -0.97467081983E+01 -0.19460014822E+03  0.21018394871E+03  0.76903270073E+02 0.  0.
          6    2    1    2  501    0  0.62218603637E+02 -0.24228134225E+02  0.15005023623E+03  0.23824838464E+03  0.17259508182E+03 0.  0.
         24    2    5    5    0    0  0.10763433541E+03 -0.44138018906E+02  0.87101299262E+02  0.15797603034E+03  0.61939284443E+02 0.  0.
          5    1    5    5  501    0 -0.45415731771E+02  0.19909884681E+02  0.62948936966E+02  0.80272354304E+02  0.47000000000E+01 0. -1.
        -11    1    6    6    0    0  0.60330465980E+02  0.72104032235E+01  0.51275831674E+02  0.79504502727E+02  0.00000000000E+00 0.  1.
         12    1    6    6    0    0  0.47303869428E+02 -0.51348422130E+02  0.35825467589E+02  0.78471527614E+02  0.00000000000E+00 0. -1.
         -5    1    3    3    0  503 -0.79509159917E+02  0.33974842424E+02 -0.64164000501E+02  0.10777339834E+03  0.47000000000E+01 0. -1.
         13    1    4    4    0    0  0.28595406244E+02  0.20966577473E+01 -0.20334566643E+02  0.35150929326E+02  0.00000000000E+00 0. -1.
        -14    1    4    4    0    0 -0.11304849963E+02 -0.11843365946E+02 -0.17426558158E+03  0.17503301938E+03  0.00000000000E+00 0.  1.
</event>
<event>
12    1  0.8297444E-002  0.2043021E+03  0.7818608E-02  0.1149451E+00
         21   -1    0    0  503  502  0.00000000000E+00  0.00000000000E+00  0.20874136660E+03  0.20874136660E+03  0.00000000000E+00 0. -1.
         21   -1    0    0  501  503 -0.00000000000E+00 -0.00000000000E+00 -0.34789851390E+03  0.34789851390E+03  0.00000000000E+00 0.  1.
          6    2    1    2  501    0 -0.72022109608E+02  0.30577172857E+02 -0.26129349753E+03  0.33168301443E+03  0.18872515053E+03 0.  0.
         24    2    3    3    0    0 -0.51563124039E+02 -0.57323260180E+02 -0.16964198504E+03  0.20296958871E+03  0.80458305581E+02 0.  0.
         -6    2    1    2    0  502  0.72022109608E+02 -0.30577172857E+02  0.12213635023E+03  0.22495686607E+03  0.17194811942E+03 0.  0.
        -24    2    5    5    0    0  0.85365341448E+02 -0.17713770596E+02  0.15062540116E+03  0.19064615380E+03  0.77826250674E+02 0.  0.
          5    1    3    3  501    0 -0.20458985569E+02  0.87900433036E+02 -0.91651512489E+02  0.12871342572E+03  0.47000000000E+01 0. -1.
        -13    1    4    4    0    0 -0.30098004690E+02 -0.42744304945E+02 -0.16912076724E+03  0.17701638174E+03  0.00000000000E+00 0.  1.
         14    1    4    4    0    0 -0.21465119349E+02 -0.14578955234E+02 -0.52121779807E+00  0.25953206977E+02  0.00000000000E+00 0. -1.
         -5    1    5    5    0  502 -0.13343231840E+02 -0.12863402261E+02 -0.28489050931E+02  0.34310712272E+02  0.47000000000E+01 0.  1.
         11    1    6    6    0    0  0.29004235746E+02 -0.34132544539E+02  0.23411683224E+02  0.50540906198E+02  0.00000000000E+00 0. -1.
        -12    1    6    6    0    0  0.56361105701E+02  0.16418773944E+02  0.12721371794E+03  0.14010524760E+03  0.00000000000E+00 0.  1.
</event>
<event>
12    1  0.8297444E-002  0.1935473E+03  0.7818608E-02  0.1156567E+00
         21   -1    0    0  501  502  0.00000000000E+00  0.00000000000E+00  0.45648790006E+02  0.45648790006E+02  0.00000000000E+00 0. -1.
         21   -1    0    0  502  503 -0.00000000000E+00 -0.00000000000E+00 -0.92356241374E+03  0.92356241374E+03  0.00000000000E+00 0. -1.
         -6    2    1    2    0  503  0.61282833231E+02 -0.68492520519E+02 -0.25380842625E+03  0.31578344330E+03  0.16387084796E+03 0.  0.
        -24    2    3    3    0    0  0.26565678609E+01 -0.27016568552E+02 -0.22127576922E+03  0.23680396903E+03  0.79851120057E+02 0.  0.
          6    2    1    2  501    0 -0.61282833231E+02  0.68492520519E+02 -0.62410519749E+03  0.65342776045E+03  0.17033417032E+03 0.  0.
         24    2    5    5    0    0 -0.87238910223E+02  0.85792922128E+02 -0.37642167450E+03  0.40374348103E+03  0.79652171958E+02 0.  0.
          5    1    5    5  501    0  0.25956076992E+02 -0.17300401609E+02 -0.24768352299E+03  0.24968427942E+03  0.47000000000E+01 0. -1.
        -11    1    6    6    0    0 -0.55608058798E+02  0.53548900415E+02 -0.33024731657E+03  0.33915045487E+03  0.00000000000E+00 0.  1.
         12    1    6    6    0    0 -0.31630851425E+02  0.32244021713E+02 -0.46174357934E+02  0.64593026162E+02  0.00000000000E+00 0. -1.
         -5    1    3    3    0  503  0.58626265370E+02 -0.41475951966E+02 -0.32532657027E+02  0.78979474270E+02  0.47000000000E+01 0.  1.
         11    1    4    4    0    0 -0.35428741567E+01 -0.19234383000E+02 -0.48509476797E+01  0.20150561780E+02  0.00000000000E+00 0. -1.
        -12    1    4    4    0    0  0.61994420176E+01 -0.77821855523E+01 -0.21642482154E+03  0.21665340725E+03  0.00000000000E+00 0.  1.
</event>
<event>
12    1  0.8297444E-002  0.1969568E+03  0.7818608E-02  0.1152353E+00
         21   -1    0    0  503  502  0.00000000000E+00  0.00000000000E+00  0.16213457346E+03  0.16213457346E+03  0.00000000000E+00 0. -1.
         21   -1    0    0  501  503 -0.00000000000E+00 -0.00000000000E+00 -0.48310678131E+03  0.48310678131E+03  0.00000000000E+00 0. -1.
          6    2    1    2  501    0  0.71585529857E+02 -0.63512289344E+02 -0.38977102093E+03  0.43670749028E+03  0.17214437060E+03 0.  0.
         24    2    3    3    0    0  0.68487978184E+02  0.20025954450E+02 -0.23823819765E+03  0.26358175697E+03  0.87328470627E+02 0.  0.
         -6    2    1    2    0  502 -0.71585529857E+02  0.63512289344E+02  0.68798813078E+02  0.20853386449E+03  0.17203138369E+03 0.  0.
        -24    2    5    5    0    0 -0.47724517824E+01 -0.13101531608E+02  0.68931682621E+02  0.10677054783E+03  0.80336458649E+02 0.  0.
          5    1    3    3  501    0  0.30975516723E+01 -0.83538243793E+02 -0.15153282328E+03  0.17312573331E+03  0.47000000000E+01 0. -1.
        -11    1    4    4    0    0  0.61906307824E+02  0.30458878204E+01 -0.66596632437E+02  0.90976809314E+02  0.00000000000E+00 0.  1.
         12    1    4    4    0    0  0.65816703600E+01  0.16980066629E+02 -0.17164156521E+03  0.17260494766E+03  0.00000000000E+00 0. -1.
         -5    1    5    5    0  502 -0.66813078074E+02  0.76613820951E+02 -0.13286954259E+00  0.10176331666E+03  0.47000000000E+01 0.  1.
         11    1    6    6    0    0 -0.14292643548E+02 -0.45517458267E+02  0.38622961756E+02  0.61382830185E+02  0.00000000000E+00 0. -1.
        -12    1    6    6    0    0  0.95201917658E+01  0.32415926660E+02  0.30308720865E+02  0.45387717644E+02  0.00000000000E+00 0.  1.
</event>
<event>
12    1  0.8297444E-002  0.2138128E+03  0.7818608E-02  0.1138765E+00
         21   -1    0    0  501  502  0.00000000000E+00  0.00000000000E+00  0.31155545785E+02  0.31155545785E+02  0.00000000000E+00 0.  1.
         21   -1    0    0  502  503 -0.00000000000E+00 -0.00000000000E+00 -0.19174826605E+04  0.19174826605E+04  0.00000000000E+00 0. -1.
         -6    2    1    2    0  503 -0.12497887800E+03  0.20654765551E+02 -0.14202053582E+04  0.14362100026E+04  0.17224857889E+03 0.  0.
        -24    2    3    3    0    0 -0.27189480902E+02  0.24484561044E+02 -0.32275343450E+03  0.33439320827E+03  0.79437249787E+02 0.  0.
          6    2    1    2  501    0  0.12497887800E+03 -0.20654765551E+02 -0.46612175650E+03  0.51242820363E+03  0.17107551757E+03 0.  0.
         24    2    5    5    0    0  0.13275570809E+03  0.27101802076E+02 -0.40342968783E+03  0.43309627871E+03  0.80363473688E+02 0.  0.
          5    1    5    5  501    0 -0.77768300933E+01 -0.47756567627E+02 -0.62692068666E+02  0.79331924920E+02  0.47000000000E+01 0. -1.
        -11    1    6    6    0    0  0.12656826076E+03  0.21265421315E+01 -0.28412208568E+03  0.31104566607E+03  0.00000000000E+00 0.  1.
         12    1    6    6    0    0  0.61874473332E+01  0.24975259945E+02 -0.11930760215E+03  0.12205061264E+03  0.00000000000E+00 0. -1.
         -5    1    3    3    0  503 -0.97789397096E+02 -0.38297954937E+01 -0.10974519237E+04  0.11018167944E+04  0.47000000000E+01 0.  1.
         13    1    4    4    0    0 -0.52960778546E+02  0.22875380412E+02 -0.26377472733E+03  0.27000969218E+03  0.00000000000E+00 0. -1.
        -14    1    4    4    0    0  0.25771297644E+02  0.16091806325E+01 -0.58978707175E+02  0.64383516094E+02  0.00000000000E+00 0.  1.
</event>
<event>
12    1  0.8297444E-002  0.2356663E+03  0.7818608E-02  0.1124905E+00
         21   -1    0    0  501  502  0.00000000000E+00  0.00000000000E+00  0.13610861221E+04  0.13610861221E+04  0.00000000000E+00 0.  1.
         21   -1    0    0  502  503 -0.00000000000E+00 -0.00000000000E+00 -0.75164139556E+02  0.75164139556E+02  0.00000000000E+00 0.  1.
         -6    2    1    2    0  503  0.10380414965E+03 -0.95079862103E+02  0.15168062389E+03  0.28025989073E+03  0.18900558993E+03 0.  0.
        -24    2    3    3    0    0  0.10423631283E+03  0.74213092792E+01  0.10271808286E+03  0.16656689480E+03  0.79203795062E+02 0.  0.
          6    2    1    2  501    0 -0.10380414965E+03  0.95079862103E+02  0.11342413586E+04  0.11559903709E+04  0.17319005842E+03 0.  0.
         24    2    5    5    0    0 -0.99384885141E+02  0.32603781335E+02  0.98819716233E+03  0.99701305227E+03  0.81000202548E+02 0.  0.
          5    1    5    5  501    0 -0.44192645094E+01  0.62476080768E+02  0.14604419632E+03  0.15897731865E+03  0.47000000000E+01 0. -1.
        -11    1    6    6    0    0 -0.51121047884E+02  0.28658828439E+02  0.81698949079E+03  0.81908883404E+03  0.00000000000E+00 0.  1.
         12    1    6    6    0    0 -0.48263837258E+02  0.39449528965E+01  0.17120767153E+03  0.17792421823E+03  0.00000000000E+00 0. -1.
         -5    1    3    3    0  503 -0.43216317529E+00 -0.10250117138E+03  0.48962541025E+02  0.11369299593E+03  0.47000000000E+01 0.  1.
         13    1    4    4    0    0  0.36246289629E+02  0.30325867334E+02  0.82988545881E+01  0.47982525245E+02  0.00000000000E+00 0. -1.
        -14    1    4    4    0    0  0.67990023197E+02 -0.22904558054E+02  0.94419228274E+02  0.11858436955E+03  0.00000000000E+00 0.  1.
</event>
<event>
12    1  0.8297444E-002  0.1812061E+03  0.7818608E-02  0.1166704E+00
         21   -1    0    0  503  502  0.00000000000E+00  0.00000000000E+00  0.26363569298E+03  0.26363569298E+03  0.00000000000E+00 0.  1.
         21   -1    0    0  501  503 -0.00000000000E+00 -0.00000000000E+00 -0.13168404790E+03  0.13168404790E+03  0.00000000000E+00 0.  1.
          6    2    1    2  501    0  0.25433543523E+02 -0.50372330453E+02  0.19347194127E+02  0.18197630713E+03  0.17192098657E+03 0.  0.
         24    2    3    3    0    0  0.66074021778E+02 -0.70446269176E+02  0.39407523851E+02  0.13218556183E+03  0.81188771544E+02 0.  0.
         -6    2    1    2    0  502 -0.25433543523E+02  0.50372330453E+02  0.11260445095E+03  0.21334343375E+03  0.17219588131E+03 0.  0.
        -24    2    5    5    0    0  0.16795962764E+02  0.69636854670E+02  0.19918797863E+02  0.10957844263E+03  0.80493979194E+02 0.  0.
          5    1    3    3  501    0 -0.40640478256E+02  0.20073938723E+02 -0.20060329725E+02  0.49790745298E+02  0.47000000000E+01 0. -1.
        -13    1    4    4    0    0  0.43776902756E+02 -0.23592216396E+02 -0.19739407944E+02  0.53503776646E+02  0.00000000000E+00 0.  1.
         14    1    4    4    0    0  0.22297119022E+02 -0.46854052780E+02  0.59146931796E+02  0.78681785182E+02  0.00000000000E+00 0. -1.
         -5    1    5    5    0  502 -0.42229506287E+02 -0.19264524218E+02  0.92685653091E+02  0.10376499113E+03  0.47000000000E+01 0.  1.
         13    1    6    6    0    0  0.27442173126E+02  0.66188058887E+02 -0.14745061426E+02  0.73152914102E+02  0.00000000000E+00 0. -1.
        -14    1    6    6    0    0 -0.10646210362E+02  0.34487957828E+01  0.34663859289E+02  0.36425528524E+02  0.00000000000E+00 0.  1.
</event>
<event>
12    1  0.8297444E-002  0.2119117E+03  0.7818608E-02  0.1140172E+00
         21   -1    0    0  501  502  0.00000000000E+00  0.00000000000E+00  0.39490885386E+03  0.39490885386E+03  0.00000000000E+00 0.  1.
         21   -1    0    0  502  503 -0.00000000000E+00 -0.00000000000E+00 -0.46197878678E+03  0.46197878678E+03  0.00000000000E+00 0.  1.
         -6    2    1    2    0  503  0.60567788347E+02  0.10818555674E+03 -0.40568123987E+03  0.45743277752E+03  0.17115754699E+03 0.  0.
        -24    2    3    3    0    0  0.40376590059E+02  0.81843994440E+02 -0.40660536627E+03  0.42389911678E+03  0.77677724471E+02 0.  0.
          6    2    1    2  501    0 -0.60567788347E+02 -0.10818555674E+03  0.33861130695E+03  0.39945486312E+03  0.17185458621E+03 0.  0.
         24    2    5    5    0    0 -0.63421352879E+02 -0.14285279917E+03  0.27800736361E+03  0.32941995414E+03  0.82463456952E+02 0.  0.
          5    1    5    5  501    0  0.28535645324E+01  0.34667242421E+02  0.60603943339E+02  0.70034908980E+02  0.47000000000E+01 0. -1.
        -13    1    6    6    0    0 -0.54540477048E+02 -0.53904524104E+02  0.73455545714E+02  0.10618888149E+03  0.00000000000E+00 0.  1.
         14    1    6    6    0    0 -0.88808758318E+01 -0.88948275062E+02  0.20455181790E+03  0.22323107265E+03  0.00000000000E+00 0. -1.
         -5    1    3    3    0  503  0.20191198288E+02  0.26341562304E+02  0.92412639648E+00  0.33533660739E+02  0.47000000000E+01 0.  1.
         13    1    4    4    0    0 -0.15413746918E+02  0.19283082469E+02 -0.34214901811E+02  0.42190998678E+02  0.00000000000E+00 0. -1.
        -14    1    4    4    0    0  0.55790336977E+02  0.62560911971E+02 -0.37239046446E+03  0.38170811810E+03  0.00000000000E+00 0.  1.
</event>
<event>
12    1  0.8297444E-002  0.1804702E+03  0.7818608E-02  0.1167391E+00
         21   -1    0    0  503  502  0.00000000000E+00  0.00000000000E+00  0.11349168032E+04  0.11349168032E+04  0.00000000000E+00 0.  1.
         21   -1    0    0  501  503 -0.00000000000E+00 -0.00000000000E+00 -0.69140641181E+02  0.69140641181E+02  0.00000000000E+00 0.  1.
          6    2    1    2  501    0 -0.26434938913E+02 -0.46845636731E+02  0.72185269090E+02  0.19420974875E+03  0.17208542576E+03 0.  0.
         24    2    3    3    0    0  0.32319297960E+02 -0.75628912150E+02  0.52438476348E+02  0.12570746325E+03  0.79298821818E+02 0.  0.
         -6    2    1    2    0  502  0.26434938913E+02  0.46845636731E+02  0.99359089294E+03  0.10098476956E+04  0.17226777468E+03 0.  0.
        -24    2    5    5    0    0 -0.48438872031E+02  0.18912405790E+02  0.68618004464E+03  0.69218455235E+03  0.74648492509E+02 0.  0.
          5    1    3    3  501    0 -0.58754236873E+02  0.28783275419E+02  0.19746792742E+02  0.68502285495E+02  0.47000000000E+01 0. -1.
        -11    1    4    4    0    0  0.10564920542E+02  0.11758505508E+02 -0.75336515434E+01  0.17511022341E+02  0.00000000000E+00 0.  1.
         12    1    4    4    0    0  0.21754377418E+02 -0.87387417658E+02  0.59972127892E+02  0.10819644091E+03  0.00000000000E+00 0. -1.
         -5    1    5    5    0  502  0.74873810945E+02  0.27933230940E+02  0.30741084830E+03  0.31766314330E+03  0.47000000000E+01 0.  1.
         13    1    6    6    0    0 -0.46150829551E+02  0.44015208389E+02  0.42010349920E+03  0.42491668322E+03  0.00000000000E+00 0. -1.
        -14    1    6    6    0    0 -0.22880424802E+01 -0.25102802599E+02  0.26607654544E+03  0.26726786913E+03  0.00000000000E+00 0.  1.
</event>
<event>
12    1  0.8297444E-002  0.1786913E+03  0.7818608E-02  0.1169934E+00
         21   -1    0    0  501  502  0.00000000000E+00  0.00000000000E+00  0.74436039275E+02  0.74436039275E+02  0.00000000000E+00 0.  1.
         21   -1    0    0  502  503 -0.00000000000E+00 -0.00000000000E+00 -0.48499247354E+03  0.48499247354E+03  0.00000000000E+00 0.  1.
         -6    2    1    2    0  503  0.49163197240E+02  0.21416439289E+02 -0.30890012447E+03  0.35686114264E+03  0.17045499227E+03 0.  0.
        -24    2    3    3    0    0  0.56752415401E+02  0.14720134739E+02 -0.32363833859E+03  0.33837488606E+03  0.79487548046E+02 0.  0.
          6    2    1    2  501    0 -0.49163197240E+02 -0.21416439289E+02 -0.10165630979E+03  0.20256737018E+03  0.16680482699E+03 0.  0.
         24    2    5    5    0    0 -0.62351560521E+02 -0.11714990688E+02 -0.13244328791E+03  0.16738244369E+03  0.80316248895E+02 0.  0.
          5    1    5    5  501    0  0.13188363281E+02 -0.97014486013E+01  0.30786978115E+02  0.35184926495E+02  0.47000000000E+01 0. -1.
        -11    1    6    6    0    0 -0.63534103364E+02 -0.70356843945E+01 -0.41282991710E+02  0.76094471216E+02  0.00000000000E+00 0.  1.
         12    1    6    6    0    0  0.11825428430E+01 -0.46793062934E+01 -0.91160296197E+02  0.91287972470E+02  0.00000000000E+00 0. -1.
         -5    1    3    3    0  503 -0.75892181606E+01  0.66963045497E+01  0.14738214111E+02  0.18486256574E+02  0.47000000000E+01 0.  1.
         13    1    4    4    0    0 -0.56831592735E+01  0.18830054406E+02 -0.18895294221E+02  0.27274555761E+02  0.00000000000E+00 0. -1.
        -14    1    4    4    0    0  0.62435574674E+02 -0.41099196669E+01 -0.30474304436E+03  0.31110033030E+03  0.00000000000E+00 0.  1.
</event>
<event>
12    1  0.8297444E-002  0.2010814E+03  0.7818608E-02  0.1150733E+00
         21   -1    0    0  501  502  0.00000000000E+00  0.00000000000E+00  0.61494459228E+03  0.61494459228E+03  0.00000000000E+00 0.  1.
         21   -1    0    0  502  503 -0.00000000000E+00 -0.00000000000E+00 -0.63102375497E+02  0.63102375497E+02  0.00000000000E+00 0.  1.
         -6    2    1    2    0  503 -0.55862207149E+02 -0.68366395122E+02  0.24977714916E+03  0.31517364343E+03  0.17073737465E+03 0.  0.
        -24    2    3    3    0    0  0.36531542285E+01  0.18816928285E+02  0.79365882381E+02  0.11466154912E+03  0.80504069681E+02 0.  0.
          6    2    1    2  501    0  0.55862207149E+02  0.68366395122E+02  0.30206506763E+03  0.36287332435E+03  0.18066320675E+03 0.  0.
         24    2    5    5    0    0 -0.27623785825E+02  0.15461559959E+02  0.67279540237E+02  0.10808877521E+03  0.78450706894E+02 0.  0.
          5    1    5    5  501    0  0.83485992974E+02  0.52904835163E+02  0.23478552739E+03  0.25478454914E+03  0.47000000000E+01 0. -1.
        -11    1    6    6    0    0  0.14648363852E+02  0.20497801684E+02  0.59766757029E+02  0.64859846463E+02  0.00000000000E+00 0.  1.
         12    1    6    6    0    0 -0.42272149678E+02 -0.50362417250E+01  0.75127832077E+01  0.43228928747E+02  0.00000000000E+00 0. -1.
         -5    1    3    3    0  503 -0.59515361378E+02 -0.87183323407E+02  0.17041126678E+03  0.20051209431E+03  0.47000000000E+01 0.  1.
         13    1    4    4    0    0 -0.37705344697E+02  0.17153587071E+01  0.40817171262E+02  0.55593857071E+02  0.00000000000E+00 0. -1.
        -14    1    4    4    0    0  0.41358498925E+02  0.17101569578E+02  0.38548711119E+02  0.59067692052E+02  0.00000000000E+00 0.  1.
</event>
<event>
12    1  0.8297444E-002  0.2512454E+03  0.7818608E-02  0.1112595E+00
         21   -1    0    0  501  502  0.00000000000E+00  0.00000000000E+00  0.21231373202E+03  0.21231373202E+03  0.00000000000E+00 0. -1.
         21   -1    0    0  502  503 -0.00000000000E+00 -0.00000000000E+00 -0.31104855413E+03  0.31104855413E+03  0.00000000000E+00 0. -1.
         -6    2    1    2    0  503 -0.18245325325E+03 -0.55408289157E+01 -0.10542605244E+03  0.27202783914E+03  0.17194360218E+03 0.  0.
        -24    2    3    3    0    0 -0.70841089139E+02 -0.44522291136E+02 -0.30355297918E+01  0.11555822963E+03  0.79647948344E+02 0.  0.
          6    2    1    2  501    0  0.18245325325E+03  0.55408289157E+01  0.66912303311E+01  0.25133444701E+03  0.17263933875E+03 0.  0.
         24    2    5    5    0    0  0.16156423414E+03  0.36561110201E+01 -0.53117186342E+02  0.18778100504E+03  0.79522961897E+02 0.  0.
          5    1    5    5  501    0  0.20889019111E+02  0.18847178956E+01  0.59808416673E+02  0.63553441968E+02  0.47000000000E+01 0. -1.
        -13    1    6    6    0    0  0.14488245339E+02  0.44823118015E+01 -0.36797316200E+02  0.39800035824E+02  0.00000000000E+00 0.  1.
         14    1    6    6    0    0  0.14707598880E+03 -0.82620078145E+00 -0.16319870143E+02  0.14798096922E+03  0.00000000000E+00 0. -1.
         -5    1    3    3    0  503 -0.11161216411E+03  0.38981462221E+02 -0.10239052264E+03  0.15646960951E+03  0.47000000000E+01 0.  1.
         11    1    4    4    0    0 -0.56995390225E+02 -0.28978189733E+02 -0.38355000713E+02  0.74560821259E+02  0.00000000000E+00 0. -1.
        -12    1    4    4    0    0 -0.13845698914E+02 -0.15544101403E+02  0.35319470922E+02  0.40997408369E+02  0.00000000000E+00 0.  1.
</event>
<event>
12    1  0.8297444E-002  0.1784740E+03  0.7818608E-02  0.1169371E+00
         21   -1    0    0  501  502  0.00000000000E+00  0.00000000000E+00  0.58601331361E+03  0.58601331361E+03  0.00000000000E+00 0. -1.
         21   -1    0    0  502  503 -0.00000000000E+00 -0.00000000000E+00 -0.55905281226E+02  0.55905281226E+02  0.00000000000E+00 0. -1.
         -6    2    1    2    0  503  0.39624217954E+02  0.29731126970E+02  0.21010694723E+03  0.27567718429E+03  0.17146125541E+03 0.  0.
        -24    2    3    3    0    0  0.50040624590E+02 -0.25959102033E+02  0.69235357566E+02  0.12376669121E+03  0.85713009684E+02 0.  0.
          6    2    1    2  501    0 -0.39624217954E+02 -0.29731126970E+02  0.32000108515E+03  0.36624141054E+03  0.17110832165E+03 0.  0.
         24    2    5    5    0    0  0.22610294235E+02 -0.63802122143E+02  0.16588150370E+03  0.19650955553E+03  0.80730390485E+02 0.  0.
          5    1    5    5  501    0 -0.62234512189E+02  0.34070995173E+02  0.15411958145E+03  0.16973185501E+03  0.47000000000E+01 0. -1.
        -13    1    6    6    0    0  0.43906739418E+02 -0.78799988639E+01  0.58335520032E+02  0.73436564774E+02  0.00000000000E+00 0.  1.
         14    1    6    6    0    0 -0.21296445183E+02 -0.55922123279E+02  0.10754598367E+03  0.12307299075E+03  0.00000000000E+00 0. -1.
         -5    1    3    3    0  503 -0.10416406636E+02  0.55690229003E+02  0.14087158966E+03  0.15191049308E+03  0.47000000000E+01 0.  1.
         11    1    4    4    0    0  0.30690305688E+02 -0.49850299674E+02  0.72118658399E+02  0.92887287236E+02  0.00000000000E+00 0. -1.
        -12    1    4    4    0    0  0.19350318902E+02  0.23891197641E+02 -0.28833008337E+01  0.30879403978E+02  0.00000000000E+00 0.  1.
</event>
<event>
12    1  0.8297444E-002  0.2274536E+03  0.7818608E-02  0.1128488E+00
         21   -1    0    0  503  502  0.00000000000E+00  0.00000000000E+00  0.26308370276E+03  0.26308370276E+03  0.00000000000E+00 0.  1.
         21   -1    0    0  501  503 -0.00000000000E+00 -0.00000000000E+00 -0.25866802545E+03  0.25866802545E+03  0.00000000000E+00 0.  1.
          6    2    1    2  501    0  0.43891446351E+02  0.14167555312E+03 -0.12574364363E+03  0.25989732777E+03  0.17244342740E+03 0.  0.
         24    2    3    3    0    0  0.47478545793E+02  0.28084225296E+02 -0.10712045718E+03  0.14463775067E+03  0.80014689598E+02 0.  0.
         -6    2    1    2    0  502 -0.43891446351E+02 -0.14167555312E+03  0.13015932093E+03  0.26185440044E+03  0.17212744345E+03 0.  0.
        -24    2    5    5    0    0  0.10011503489E+02 -0.83005422027E+02  0.14008441012E+03  0.18142859811E+03  0.79388689152E+02 0.  0.
          5    1    3    3  501    0 -0.35870994413E+01  0.11359132783E+03 -0.18623186455E+02  0.11525957710E+03  0.47000000000E+01 0. -1.
        -13    1    4    4    0    0  0.58993188963E+02  0.44066857814E+02 -0.98878746973E+02  0.12328459314E+03  0.00000000000E+00 0.  1.
         14    1    4    4    0    0 -0.11514643170E+02 -0.15982632518E+02 -0.82417102026E+01  0.21353157532E+02  0.00000000000E+00 0. -1.
         -5    1    5    5    0  502 -0.53902949840E+02 -0.58670131098E+02 -0.99250891892E+01  0.80425802327E+02  0.47000000000E+01 0.  1.
         13    1    6    6    0    0  0.43646308242E+01 -0.90041387797E+01  0.92999470676E+02  0.93536228615E+02  0.00000000000E+00 0. -1.
        -14    1    6    6    0    0  0.56468726645E+01 -0.74001283247E+02  0.47084939448E+02  0.87892369498E+02  0.00000000000E+00 0.  1.
</event>
<event>
12    1  0.8297444E-002  0.1910513E+03  0.7818608E-02  0.1158043E+00
         21   -1    0    0  503  502  0.00000000000E+00  0.00000000000E+00  0.57897822676E+03  0.57897822676E+03  0.00000000000E+00 0. -1.
         21   -1    0    0  501  503 -0.00000000000E+00 -0.00000000000E+00 -0.23765500058E+03  0.23765500058E+03  0.00000000000E+00 0.  1.
          6    2    1    2  501    0  0.61729083439E+02  0.49846503779E+02 -0.18037562437E+03  0.26105219805E+03  0.17122421137E+03 0.  0.
         24    2    3    3    0    0  0.56596760556E+02  0.97505269585E+02 -0.15092161198E+03  0.20459577644E+03  0.79822477214E+02 0.  0.
         -6    2    1    2    0  502 -0.61729083439E+02 -0.49846503779E+02  0.52169885055E+03  0.55558102928E+03  0.17379711089E+03 0.  0.
        -24    2    5    5    0    0 -0.56789020486E+01  0.13755791466E+02  0.40126138390E+03  0.40822381647E+03  0.73583383977E+02 0.  0.
          5    1    3    3  501    0  0.51323228822E+01 -0.47658765806E+02 -0.29454012383E+02  0.56456421617E+02  0.47000000000E+01 0. -1.
        -13    1    4    4    0    0 -0.18607926475E+01  0.48646422302E+02 -0.19007174122E+02  0.52260976074E+02  0.00000000000E+00 0.  1.
         14    1    4    4    0    0  0.58457553204E+02  0.48858847283E+02 -0.13191443786E+03  0.15233480036E+03  0.00000000000E+00 0. -1.
         -5    1    5    5    0  502 -0.56050181390E+02 -0.63602295245E+02  0.12043746665E+03  0.14735721281E+03  0.47000000000E+01 0.  1.
         13    1    6    6    0    0 -0.23326844012E+02 -0.22854644860E+02  0.13593259345E+03  0.13980038056E+03  0.00000000000E+00 0. -1.
        -14    1    6    6    0    0  0.17647941964E+02  0.36610436326E+02  0.26532879046E+03  0.26842343592E+03  0.00000000000E+00 0.  1.
</event>
<event>
12    1  0.8297444E-002  0.2366789E+03  0.7818608E-02  0.1122344E+00
         21   -1    0    0  501  502  0.00000000000E+00  0.00000000000E+00  0.65479645359E+03  0.65479645359E+03  0.00000000000E+00 0. -1.
         21   -1    0    0  502  503 -0.00000000000E+00 -0.00000000000E+00 -0.97418421060E+02  0.97418421060E+02  0.00000000000E+00 0. -1.
         -6    2    1    2    0  503  0.13577011725E+03  0.85232928841E+02  0.14468975659E+03  0.27740226705E+03  0.17412270158E+03 0.  0.
        -24    2    3    3    0    0  0.75185292323E+02  0.63343372646E+02  0.75558656473E+01  0.12581906307E+03  0.78154555128E+02 0.  0.
          6    2    1    2  501    0 -0.13577011725E+03 -0.85232928841E+02  0.41268827593E+03  0.47481260760E+03  0.17157279021E+03 0.  0.
         24    2    5    5    0    0 -0.13502323906E+03 -0.87304676585E+01  0.25380101506E+03  0.29840275508E+03  0.79509451307E+02 0.  0.
          5    1    5    5  501    0 -0.74687819714E+00 -0.76502461182E+02  0.15888726088E+03  0.17640985251E+03  0.47000000000E+01 0. -1.
        -13    1    6    6    0    0  0.94925480216E+01  0.38214997584E+01  0.30045302879E+02  0.31740078031E+02  0.00000000000E+00 0.  1.
         14    1    6    6    0    0 -0.14451578708E+03 -0.12551967417E+02  0.22375571218E+03  0.26666267705E+03  0.00000000000E+00 0. -1.
         -5    1    3    3    0  503  0.60584824931E+02  0.21889556195E+02  0.13713389094E+03  0.15158320398E+03  0.47000000000E+01 0.  1.
         13    1    4    4    0    0  0.22079567668E+01  0.24677065134E+02 -0.26685976793E+02  0.36413925552E+02  0.00000000000E+00 0. -1.
        -14    1    4    4    0    0  0.72977335556E+02  0.38666307512E+02  0.34241842441E+02  0.89405137522E+02  0.00000000000E+00 0.  1.
</event>
<event>
12    1  0.8297444E-002  0.1766171E+03  0.7818608E-02  0.1171445E+00
         21   -1    0    0  503  502  0.00000000000E+00  0.00000000000E+00  0.88793890474E+03  0.88793890474E+03  0.00000000000E+00 0.  1.
         21   -1    0    0  501  503 -0.00000000000E+00 -0.00000000000E+00 -0.13534310579E+03  0.13534310579E+03  0.00000000000E+00 0. -1.
          6    2    1    2  501    0 -0.38474634531E+02  0.11659014110E+02 -0.64171528700E+02  0.18791378636E+03  0.17198074281E+03 0.  0.
         24    2    3    3    0    0 -0.21168064904E+02  0.48262050256E+02 -0.97405439325E+02  0.13532212901E+03  0.77762114962E+02 0.  0.
         -6    2    1    2    0  502  0.38474634531E+02 -0.11659014110E+02  0.81676732765E+03  0.83536822417E+03  0.17063110008E+03 0.  0.
        -24    2    5    5    0    0  0.27914094221E+02 -0.21433431765E+02  0.19793971709E+03  0.21635548937E+03  0.79943589633E+02 0.  0.
          5    1    3    3  501    0 -0.17306569627E+02 -0.36603036146E+02  0.33233910625E+02  0.52591657349E+02  0.47000000000E+01 0. -1.
        -13    1    4    4    0    0 -0.16241702254E+02  0.31440125030E+02  0.96655129618E+00  0.35400686087E+02  0.00000000000E+00 0.  1.
         14    1    4    4    0    0 -0.49263626500E+01  0.16821925226E+02 -0.98371990621E+02  0.99921442924E+02  0.00000000000E+00 0. -1.
         -5    1    5    5    0  502  0.10560540309E+02  0.97744176547E+01  0.61882761056E+03  0.61901273480E+03  0.47000000000E+01 0.  1.
         11    1    6    6    0    0  0.28037578630E+02 -0.47893199680E+02  0.16512685357E+03  0.17420316346E+03  0.00000000000E+00 0. -1.
        -12    1    6    6    0    0 -0.12348440822E+00  0.26459767915E+02  0.32812863522E+02  0.42152325903E+02  0.00000000000E+00 0.  1.
</event>
<event>
12    1  0.8297444E-002  0.2250496E+03  0.7818608E-02  0.1130346E+00
         21   -1    0    0  503  502  0.00000000000E+00  0.00000000000E+00  0.14722319351E+03  0.14722319351E+03  0.00000000000E+00 0. -1.
         21   -1    0    0  501  503 -0.00000000000E+00 -0.00000000000E+00 -0.39836850711E+03  0.39836850711E+03  0.00000000000E+00 0.  1.
          6    2    1    2  501    0  0.33590889915E+02 -0.14022968016E+03 -0.23703073147E+02  0.22629436483E+03  0.17278481645E+03 0.  0.
         24    2    3    3    0    0 -0.54825903127E+01 -0.80512819915E+01  0.19503726460E+02  0.81771759914E+02  0.78812076710E+02 0.  0.
         -6    2    1    2    0  502 -0.33590889915E+02  0.14022968016E+03 -0.22744224046E+03  0.31929733578E+03  0.17154621771E+03 0.  0.
        -24    2    5    5    0    0 -0.14021634262E+02  0.20270675217E+02 -0.14196936594E+02  0.73800353616E+02  0.68098698109E+02 0.  0.
          5    1    3    3  501    0  0.39073480228E+02 -0.13217839817E+03 -0.43206799607E+02  0.14452260492E+03  0.47000000000E+01 0. -1.
        -11    1    4    4    0    0  0.29230945630E+01  0.26271838857E+02 -0.16630748502E+02  0.31230366544E+02  0.00000000000E+00 0.  1.
         12    1    4    4    0    0 -0.84056848757E+01 -0.34323120848E+02  0.36134474962E+02  0.50541393370E+02  0.00000000000E+00 0. -1.
         -5    1    5    5    0  502 -0.19569255653E+02  0.11995900494E+03 -0.21324530386E+03  0.24549698217E+03  0.47000000000E+01 0.  1.
         11    1    6    6    0    0  0.13314224510E+02  0.31630576004E+02  0.98032207623E+01  0.35691246125E+02  0.00000000000E+00 0. -1.
        -12    1    6    6    0    0 -0.27335858772E+02 -0.11359900786E+02 -0.24000157357E+02  0.38109107492E+02  0.00000000000E+00 0.  1.
</event>
<event>
12    1  0.8297444E-002  0.2387931E+03  0.7818608E-02  0.1120695E+00
         21   -1    0    0  501  502  0.00000000000E+00  0.00000000000E+00  0.42179020019E+02  0.42179020019E+02  0.00000000000E+00 0. -1.
         21   -1    0    0  502  503 -0.00000000000E+00 -0.00000000000E+00 -0.13487116284E+04  0.13487116284E+04  0.00000000000E+00 0. -1.
         -6    2    1    2    0  503 -0.16721141316E+03  0.32631649061E+01 -0.65691674317E+03  0.69897193246E+03  0.17044603242E+03 0.  0.
        -24    2    3    3    0    0 -0.48737152788E+02 -0.44257932254E+02 -0.42582208194E+03  0.43492413850E+03  0.59164906390E+02 0.  0.
          6    2    1    2  501    0  0.16721141316E+03 -0.32631649061E+01 -0.64961586519E+03  0.69191871594E+03  0.16964796558E+03 0.  0.
         24    2    5    5    0    0  0.12500471302E+03 -0.44964849643E+02 -0.29920458739E+03  0.33648856857E+03  0.77802028810E+02 0.  0.
          5    1    5    5  501    0  0.42206700147E+02  0.41701684737E+02 -0.35041127781E+03  0.35543014737E+03  0.47000000000E+01 0. -1.
        -13    1    6    6    0    0 -0.65193383443E+01  0.88709460461E+01 -0.32014473693E+02  0.33854423374E+02  0.00000000000E+00 0.  1.
         14    1    6    6    0    0  0.13152405136E+03 -0.53835795689E+02 -0.26719011369E+03  0.30263414520E+03  0.00000000000E+00 0. -1.
         -5    1    3    3    0  503 -0.11847426038E+03  0.47521097160E+02 -0.23109466123E+03  0.26404779396E+03  0.47000000000E+01 0.  1.
         11    1    4    4    0    0 -0.43243056421E+02 -0.21595256739E+02 -0.38408495617E+03  0.38711441539E+03  0.00000000000E+00 0. -1.
        -12    1    4    4    0    0 -0.54940963672E+01 -0.22662675514E+02 -0.41737125774E+02  0.47809723114E+02  0.00000000000E+00 0.  1.
</event>
<event>
12    1  0.8297444E-002  0.2375881E+03  0.7818608E-02  0.1121428E+00
         21   -1    0    0  503  502  0.00000000000E+00  0.00000000000E+00  0.46475792227E+03  0.46475792227E+03  0.00000000000E+00 0. -1.
         21   -1    0    0  501  503 -0.00000000000E+00 -0.00000000000E+00 -0.15568310611E+03  0.15568310611E+03  0.00000000000E+00 0.  1.
          6    2    1    2  501    0 -0.16289898730E+03 -0.20066074952E+02  0.89380403849E+01  0.23764842325E+03  0.17163378771E+03 0.  0.
         24    2    3    3    0    0 -0.17885136530E+03 -0.98728672629E+01  0.40850983075E+02  0.20024647467E+03  0.79652767801E+02 0.  0.
         -6    2    1    2    0  502  0.16289898730E+03  0.20066074952E+02  0.30013677578E+03  0.38279260513E+03  0.17178290642E+03 0.  0.
        -24    2    5    5    0    0  0.56546964461E+02 -0.67282802458E+01  0.47222968726E+02  0.10708229696E+03  0.77419510469E+02 0.  0.
          5    1    3    3  501    0  0.15952378007E+02 -0.10193207689E+02 -0.31912942690E+02  0.37401948588E+02  0.47000000000E+01 0. -1.
        -11    1    4    4    0    0 -0.96577654778E+02  0.10459714551E+02 -0.15643047060E+02  0.98393871518E+02  0.00000000000E+00 0.  1.
         12    1    4    4    0    0 -0.82273710526E+02 -0.20332581814E+02  0.56494030135E+02  0.10185260315E+03  0.00000000000E+00 0. -1.
         -5    1    5    5    0  502  0.10635202284E+03  0.26794355198E+02  0.25291380706E+03  0.27571030817E+03  0.47000000000E+01 0.  1.
         13    1    6    6    0    0  0.64524296483E+02  0.19113776149E+02  0.24040320213E+02  0.71460886303E+02  0.00000000000E+00 0. -1.
        -14    1    6    6    0    0 -0.79773320211E+01 -0.25842056395E+02  0.23182648512E+02  0.35621410654E+02  0.00000000000E+00 0.  1.
</event>
<event>
12    1  0.8297444E-002  0.1987758E+03  0.7818608E-02  0.1150965E+00
         21   -1    0    0  503  502  0.00000000000E+00  0.00000000000E+00  0.66604393468E+03  0.66604393468E+03  0.00000000000E+00 0.  1.
         21   -1    0    0  501  503 -0.00000000000E+00 -0.00000000000E+00 -0.59061847439E+02  0.59061847439E+02  0.00000000000E+00 0.  1.
          6    2    1    2  501    0 -0.69288744261E+02  0.71317765012E+02  0.30556975471E+03  0.36405008367E+03  0.17109188975E+03 0.  0.
         24    2    3    3    0    0 -0.70296451571E+02  0.11241364777E+03  0.21726082932E+03  0.26652858165E+03  0.79099921422E+02 0.  0.
         -6    2    1    2    0  502  0.69288744261E+02 -0.71317765012E+02  0.30141233253E+03  0.36105569845E+03  0.17211818467E+03 0.  0.
        -24    2    5    5    0    0  0.53168819257E+01 -0.38663393249E+02  0.54945443485E+02  0.10429369861E+03  0.79593005968E+02 0.  0.
          5    1    3    3  501    0  0.10077073094E+01 -0.41095882755E+02  0.88308925389E+02  0.97521502023E+02  0.47000000000E+01 0. -1.
        -13    1    4    4    0    0 -0.52766803028E+01  0.82192217434E+02  0.10749369302E+03  0.13541897209E+03  0.00000000000E+00 0.  1.
         14    1    4    4    0    0 -0.65019771268E+02  0.30221430333E+02  0.10976713630E+03  0.13110960956E+03  0.00000000000E+00 0. -1.
         -5    1    5    5    0  502  0.63971862336E+02 -0.32654371762E+02  0.24646688905E+03  0.25676199984E+03  0.47000000000E+01 0.  1.
         11    1    6    6    0    0  0.54499428300E+01 -0.14460239225E+01  0.65394467757E+02  0.65637102885E+02  0.00000000000E+00 0. -1.
        -12    1    6    6    0    0 -0.13306090426E+00 -0.37217369327E+02 -0.10449024271E+02  0.38656595725E+02  0.00000000000E+00 0.  1.
</event>
<event>
12    1  0.8297444E-002  0.1958854E+03  0.7818608E-02  0.1153430E+00
         21   -1    0    0  501  502  0.00000000000E+00  0.00000000000E+00  0.36348371287E+02  0.36348371287E+02  0.00000000000E+00 0.  1.
         21   -1    0    0  502  503 -0.00000000000E+00 -0.00000000000E+00 -0.19932429570E+04  0.19932429570E+04  0.00000000000E+00 0.  1.
         -6    2    1    2    0  503 -0.52590874824E+02  0.77857790735E+02 -0.16770714359E+04  0.16884725918E+04  0.17188210045E+03 0.  0.
        -24    2    3    3    0    0 -0.62855887470E+02  0.40947998942E+02 -0.15843551813E+04  0.15880430290E+04  0.77921244148E+02 0.  0.
          6    2    1    2  501    0  0.52590874824E+02 -0.77857790735E+02 -0.27982314977E+03  0.34111873644E+03  0.17097766378E+03 0.  0.
         24    2    5    5    0    0  0.90910492743E+02 -0.15655758766E+02 -0.16856014084E+03  0.20793077507E+03  0.79453544088E+02 0.  0.
          5    1    5    5  501    0 -0.38319617920E+02 -0.62202031970E+02 -0.11126300892E+03  0.13318796137E+03  0.47000000000E+01 0. -1.
        -11    1    6    6    0    0  0.10569115538E+03 -0.11266136571E+02 -0.14893442198E+03  0.18297269799E+03  0.00000000000E+00 0.  1.
         12    1    6    6    0    0 -0.14780662634E+02 -0.43896221949E+01 -0.19625718861E+02  0.24958077084E+02  0.00000000000E+00 0. -1.
         -5    1    3    3    0  503  0.10265012646E+02  0.36909791793E+02 -0.92716254673E+02  0.10042956286E+03  0.47000000000E+01 0.  1.
         13    1    4    4    0    0  0.16447444154E+02  0.17689551804E+02 -0.26342869219E+03  0.26453376822E+03  0.00000000000E+00 0. -1.
        -14    1    4    4    0    0 -0.79303331624E+02  0.23258447138E+02 -0.13209264891E+04  0.13235092608E+04  0.00000000000E+00 0.  1.
</event>
<event>
12    1  0.8297444E-002  0.2529613E+03  0.7818608E-02  0.1111517E+00
         21   -1    0    0  501  502  0.00000000000E+00  0.00000000000E+00  0.27513495236E+03  0.27513495236E+03  0.00000000000E+00 0.  1.
         21   -1    0    0  502  503 -0.00000000000E+00 -0.00000000000E+00 -0.23220734964E+03  0.23220734964E+03  0.00000000000E+00 0. -1.
         -6    2    1    2    0  503  0.44850458670E+02 -0.17611401937E+03  0.24797756855E+02  0.25417385526E+03  0.17595939445E+03 0.  0.
        -24    2    3    3    0    0  0.74967755663E+02 -0.17073052705E+03 -0.15510113819E+02  0.20335212757E+03  0.79639480788E+02 0.  0.
          6    2    1    2  501    0 -0.44850458670E+02  0.17611401937E+03  0.18129845864E+02  0.25316844674E+03  0.17532215961E+03 0.  0.
         24    2    5    5    0    0  0.34371373938E+02  0.58846466111E+02  0.35504026083E+02  0.11050895723E+03  0.79419115077E+02 0.  0.
          5    1    5    5  501    0 -0.79221832608E+02  0.11726755325E+03 -0.17374180218E+02  0.14265948951E+03  0.47000000000E+01 0. -1.
        -11    1    6    6    0    0  0.22334213405E+02  0.14759264376E+02  0.54731706215E+02  0.60927929872E+02  0.00000000000E+00 0.  1.
         12    1    6    6    0    0  0.12037160534E+02  0.44087201734E+02 -0.19227680132E+02  0.49581027357E+02  0.00000000000E+00 0. -1.
         -5    1    3    3    0  503 -0.30117296993E+02 -0.53834923176E+01  0.40307870675E+02  0.50821727696E+02  0.47000000000E+01 0.  1.
         11    1    4    4    0    0  0.18630308765E+02 -0.61178310892E+01 -0.21710778829E+02  0.29255327366E+02  0.00000000000E+00 0. -1.
        -12    1    4    4    0    0  0.56337446898E+02 -0.16461269596E+03  0.62006650100E+01  0.17409680020E+03  0.00000000000E+00 0.  1.
</event>
<event>
12    1  0.8297444E-002  0.1884048E+03  0.7818608E-02  0.1160201E+00
         21   -1    0    0  503  502  0.00000000000E+00  0.00000000000E+00  0.14651557965E+03  0.14651557965E+03  0.00000000000E+00 0. -1.
         21   -1    0    0  501  503 -0.00000000000E+00 -0.00000000000E+00 -0.44083986264E+03  0.44083986264E+03  0.00000000000E+00 0.  1.
          6    2    1    2  501    0  0.73550121826E+02 -0.13435147607E+02 -0.34534897846E+03  0.39339836118E+03  0.17293417837E+03 0.  0.
         24    2    3    3    0    0  0.18978803010E+01  0.41025986578E+02 -0.11046116633E+03  0.14181451206E+03  0.78885696046E+02 0.  0.
         -6    2    1    2    0  502 -0.73550121826E+02  0.13435147607E+02  0.51024695468E+02  0.19395708110E+03  0.17153922627E+03 0.  0.
        -24    2    5    5    0    0 -0.52499782287E+02  0.32549234394E+02 -0.32177432087E+02  0.10590511271E+03  0.79779859380E+02 0.  0.
          5    1    3    3  501    0  0.71652241525E+02 -0.54461134185E+02 -0.23488781213E+03  0.25158384912E+03  0.47000000000E+01 0. -1.
        -13    1    4    4    0    0  0.19802925595E+02 -0.18647088781E+01 -0.87951476750E+02  0.90172585989E+02  0.00000000000E+00 0.  1.
         14    1    4    4    0    0 -0.17905045294E+02  0.42890695456E+02 -0.22509689575E+02  0.51641926072E+02  0.00000000000E+00 0. -1.
         -5    1    5    5    0  502 -0.21050339539E+02 -0.19114086786E+02  0.83202127555E+02  0.88051968394E+02  0.47000000000E+01 0.  1.
         11    1    6    6    0    0 -0.32017838476E+02  0.14020409816E+02  0.24616541952E+02  0.42751467925E+02  0.00000000000E+00 0. -1.
        -12    1    6    6    0    0 -0.20481943811E+02  0.18528824578E+02 -0.56793974039E+02  0.63153644785E+02  0.00000000000E+00 0.  1.
</event>
<event>
12    1  0.8297444E-002  0.1722809E+03  0.7818608E-02  0.1175635E+00
         21   -1    0    0  501  502  0.00000000000E+00  0.00000000000E+00  0.33858095125E+02  0.33858095125E+02  0.00000000000E+00 0.  1.
         21   -1    0    0  502  503 -0.00000000000E+00 -0.00000000000E+00 -0.92391431353E+03  0.92391431353E+03  0.00000000000E+00 0.  1.
         -6    2    1    2    0  503  0.34522977657E+00 -0.73423206703E+01 -0.55730682755E+03  0.58332803670E+03  0.17212399459E+03 0.  0.
        -24    2    3    3    0    0 -0.56914068339E+02 -0.36457365847E+02 -0.42296197066E+03  0.43434164924E+03  0.72024224683E+02 0.  0.
          6    2    1    2  501    0 -0.34522977657E+00  0.73423206703E+01 -0.33274939086E+03  0.37444437196E+03  0.17155874130E+03 0.  0.
         24    2    5    5    0    0 -0.48447954204E+02 -0.19310327004E+02 -0.10933201964E+03  0.14431039469E+03  0.78434090189E+02 0.  0.
          5    1    5    5  501    0  0.48102724428E+02  0.26652647674E+02 -0.22341737123E+03  0.23013397726E+03  0.47000000000E+01 0. -1.
        -11    1    6    6    0    0 -0.11043525426E+02 -0.44648076978E+02 -0.73245748219E+02  0.86489015857E+02  0.00000000000E+00 0.  1.
         12    1    6    6    0    0 -0.37404428779E+02  0.25337749974E+02 -0.36086271416E+02  0.57821378838E+02  0.00000000000E+00 0. -1.
         -5    1    3    3    0  503  0.57259298115E+02  0.29115045177E+02 -0.13434485688E+03  0.14898638746E+03  0.47000000000E+01 0.  1.
         11    1    4    4    0    0 -0.34552701566E+02 -0.51742577823E+02 -0.36620192769E+03  0.37144990966E+03  0.00000000000E+00 0. -1.
        -12    1    4    4    0    0 -0.22361366772E+02  0.15285211976E+02 -0.56760042973E+02  0.62891739580E+02  0.00000000000E+00 0.  1.
</event>
<event>
12    1  0.8297444E-002  0.1921369E+03  0.7818608E-02  0.1157321E+00
         21   -1    0    0  501  502  0.00000000000E+00  0.00000000000E+00  0.43436442065E+02  0.43436442065E+02  0.00000000000E+00 0. -1.
         21   -1    0    0  502  503 -0.00000000000E+00 -0.00000000000E+00 -0.14998745282E+04  0.14998745282E+04  0.00000000000E+00 0. -1.
         -6    2    1    2    0  503  0.85555709941E+02  0.26614809459E+01 -0.12384135377E+04  0.12527059083E+04  0.16815807822E+03 0.  0.
        -24    2    3    3    0    0  0.41426158472E+02 -0.37549947486E+02 -0.10739021423E+04  0.10776331648E+04  0.70009295722E+02 0.  0.
          6    2    1    2  501    0 -0.85555709941E+02 -0.26614809459E+01 -0.21802454839E+03  0.29060506194E+03  0.17201667171E+03 0.  0.
         24    2    5    5    0    0 -0.11193629915E+03  0.29068922767E+02 -0.20181296111E+03  0.24602188609E+03  0.80147113656E+02 0.  0.
          5    1    5    5  501    0  0.26380589212E+02 -0.31730403713E+02 -0.16211587279E+02  0.44583175852E+02  0.47000000000E+01 0. -1.
        -13    1    6    6    0    0 -0.81480187551E+02 -0.10602072525E+02 -0.81515202044E+02  0.11574175163E+03  0.00000000000E+00 0.  1.
         14    1    6    6    0    0 -0.30456111602E+02  0.39670995292E+02 -0.12029775906E+03  0.13028013447E+03  0.00000000000E+00 0. -1.
         -5    1    3    3    0  503  0.44129551469E+02  0.40211428432E+02 -0.16451139546E+03  0.17507274352E+03  0.47000000000E+01 0.  1.
         11    1    4    4    0    0  0.33478080526E+02 -0.52557863858E+02 -0.56105898343E+03  0.56450889614E+03  0.00000000000E+00 0. -1.
        -12    1    4    4    0    0  0.79480779462E+01  0.15007916372E+02 -0.51284315882E+03  0.51312426862E+03  0.00000000000E+00 0.  1.
</event>
<event>
12    1  0.8297444E-002  0.2259358E+03  0.7818608E-02  0.1129559E+00
         21   -1    0    0  503  502  0.00000000000E+00  0.00000000000E+00  0.54629912296E+03  0.54629912296E+03  0.00000000000E+00 0.  1.
         21   -1    0    0  501  503 -0.00000000000E+00 -0.00000000000E+00 -0.97920379198E+02  0.97920379198E+02  0.00000000000E+00 0.  1.
          6    2    1    2  501    0 -0.22740628857E+01  0.14639451470E+03  0.29346206560E+03  0.37027396260E+03  0.17189036661E+03 0.  0.
         24    2    3    3    0    0 -0.33853931747E+02  0.15918031327E+03  0.27885011653E+03  0.33290601085E+03  0.81145324832E+02 0.  0.
         -6    2    1    2    0  502  0.22740628857E+01 -0.14639451470E+03  0.15491667816E+03  0.27394553956E+03  0.17207689030E+03 0.  0.
        -24    2    5    5    0    0 -0.39504726223E+02 -0.19668645602E+02  0.78828925719E+02  0.12026942173E+03  0.79393042895E+02 0.  0.
          5    1    3    3  501    0  0.31579868861E+02 -0.12785798571E+02  0.14611949078E+02  0.37367951754E+02  0.47000000000E+01 0. -1.
        -11    1    4    4    0    0 -0.48138778059E+01 -0.16230121320E+01  0.57767605523E+02  0.57990549538E+02  0.00000000000E+00 0.  1.
         12    1    4    4    0    0 -0.29040053941E+02  0.16080332541E+03  0.22108251100E+03  0.27491546131E+03  0.00000000000E+00 0. -1.
         -5    1    5    5    0  502  0.41778789108E+02 -0.12672586910E+03  0.76087752441E+02  0.15367611783E+03  0.47000000000E+01 0.  1.
         11    1    6    6    0    0  0.12493713820E+02 -0.10969618384E+02 -0.81836863583E+01  0.18531004693E+02  0.00000000000E+00 0. -1.
        -12    1    6    6    0    0 -0.51998440042E+02 -0.86990272181E+01  0.87012612077E+02  0.10173841704E+03  0.00000000000E+00 0.  1.
</event>
<event>
12    1  0.8297444E-002  0.1799022E+03  0.7818608E-02  0.1168043E+00
         21   -1    0    0  501  502  0.00000000000E+00  0.00000000000E+00  0.19999932251E+03  0.19999932251E+03  0.00000000000E+00 0. -1.
         21   -1    0    0  502  503 -0.00000000000E+00 -0.00000000000E+00 -0.17943896532E+03  0.17943896532E+03  0.00000000000E+00 0. -1.
         -6    2    1    2    0  503 -0.46444183869E+02  0.22843645843E+02  0.70636480341E+02  0.19327263835E+03  0.17229598373E+03 0.  0.
        -24    2    3    3    0    0  0.41230782472E+02  0.11006495321E+02  0.47319204918E+02  0.10166039469E+03  0.79212425365E+02 0.  0.
          6    2    1    2  501    0  0.46444183869E+02 -0.22843645843E+02 -0.50076123150E+02  0.18616564948E+03  0.17167159510E+03 0.  0.
         24    2    5    5    0    0  0.78553930845E+02  0.56086344946E+00  0.11669507067E+02  0.11258970397E+03  0.79807452197E+02 0.  0.
          5    1    5    5  501    0 -0.32109746976E+02 -0.23404509293E+02 -0.61745630217E+02  0.73575945505E+02  0.47000000000E+01 0. -1.
        -13    1    6    6    0    0  0.34539295236E+02 -0.27598400005E+02  0.33993394494E+02  0.55769036816E+02  0.00000000000E+00 0.  1.
         14    1    6    6    0    0  0.44014635610E+02  0.28159263454E+02 -0.22323887427E+02  0.56820667155E+02  0.00000000000E+00 0. -1.
         -5    1    3    3    0  503 -0.87674966341E+02  0.11837150522E+02  0.23317275423E+02  0.91612243661E+02  0.47000000000E+01 0.  1.
         11    1    4    4    0    0 -0.14277674270E+02 -0.16625694767E+02  0.30238801703E+02  0.37345024266E+02  0.00000000000E+00 0. -1.
        -12    1    4    4    0    0  0.55508456742E+02  0.27632190088E+02  0.17080403216E+02  0.64315370425E+02  0.00000000000E+00 0.  1.
</event>
<event>
12    1  0.8297444E-002  0.1919252E+03  0.7818608E-02  0.1157454E+00
         21   -1    0    0  501  502  0.00000000000E+00  0.00000000000E+00  0.57500331726E+02  0.57500331726E+02  0.00000000000E+00 0. -1.
         21   -1    0    0  502  503 -0.00000000000E+00 -0.00000000000E+00 -0.79733300336E+03  0.79733300336E+03  0.00000000000E+00 0. -1.
         -6    2    1    2    0  503 -0.13859236599E+02 -0.84601167960E+02 -0.56817189673E+03  0.59971208302E+03  0.17171442056E+03 0.  0.
        -24    2    3    3    0    0  0.44746808875E+02 -0.74435370990E+02 -0.26185608374E+03  0.28763920807E+03  0.81392899365E+02 0.  0.
          6    2    1    2  501    0  0.13859236599E+02  0.84601167960E+02 -0.17166077491E+03  0.25512125207E+03  0.16813683581E+03 0.  0.
         24    2    5    5    0    0  0.44731855687E+02  0.34396590412E+02 -0.16932097042E+03  0.19595045774E+03  0.80888358366E+02 0.  0.
          5    1    5    5  501    0 -0.30872619089E+02  0.50204577548E+02 -0.23398044843E+01  0.59170794326E+02  0.47000000000E+01 0. -1.
        -11    1    6    6    0    0  0.53316947044E+02  0.44790316410E+02 -0.16864177566E+03  0.18245250830E+03  0.00000000000E+00 0.  1.
         12    1    6    6    0    0 -0.85850913565E+01 -0.10393725998E+02 -0.67919476480E+00  0.13497949446E+02  0.00000000000E+00 0. -1.
         -5    1    3    3    0  503 -0.58606045473E+02 -0.10165796970E+02 -0.30631581299E+03  0.31207287495E+03  0.47000000000E+01 0.  1.
         11    1    4    4    0    0  0.54816795750E+02 -0.58768635485E+02 -0.25568789318E+03  0.26802039537E+03  0.00000000000E+00 0. -1.
        -12    1    4    4    0    0 -0.10069986875E+02 -0.15666735505E+02 -0.61681905601E+01  0.19618812702E+02  0.00000000000E+00 0.  1.
</event>
<event>
12    1  0.8297444E-002  0.1889293E+03  0.7818608E-02  0.1160111E+00
         21   -1    0    0  503  502  0.00000000000E+00  0.00000000000E+00  0.19946961323E+03  0.19946961323E+03  0.00000000000E+00 0. -1.
         21   -1    0    0  501  503 -0.00000000000E+00 -0.00000000000E+00 -0.23319255602E+03  0.23319255602E+03  0.00000000000E+00 0. -1.
          6    2    1    2  501    0 -0.74594906432E+02  0.75478931352E+01 -0.12375657902E+03  0.22337685381E+03  0.17017684099E+03 0.  0.
         24    2    3    3    0    0 -0.10072208841E+03 -0.34511195869E+02 -0.67980258895E+02  0.14864610717E+03  0.78347864314E+02 0.  0.
         -6    2    1    2    0  502  0.74594906432E+02 -0.75478931352E+01  0.90033636233E+02  0.20928531544E+03  0.17341544582E+03 0.  0.
        -24    2    5    5    0    0  0.17768713304E+02  0.33975223205E+02 -0.77336082890E+01  0.88728650268E+02  0.79642461771E+02 0.  0.
          5    1    3    3  501    0  0.26127181981E+02  0.42059089004E+02 -0.55776320129E+02  0.74730746640E+02  0.47000000000E+01 0. -1.
        -13    1    4    4    0    0 -0.11011967276E+03 -0.16541431924E+02 -0.62248640056E+02  0.12757293792E+03  0.00000000000E+00 0.  1.
         14    1    4    4    0    0  0.93975843506E+01 -0.17969763945E+02 -0.57316188395E+01  0.21073169254E+02  0.00000000000E+00 0. -1.
         -5    1    5    5    0  502  0.56826193128E+02 -0.41523116340E+02  0.97767244522E+02  0.12055666517E+03  0.47000000000E+01 0.  1.
         13    1    6    6    0    0 -0.78130530803E+01  0.26975902819E+02  0.30971284606E+02  0.41808654624E+02  0.00000000000E+00 0. -1.
        -14    1    6    6    0    0  0.25581766384E+02  0.69993203862E+01 -0.38704892895E+02  0.46919995644E+02  0.00000000000E+00 0.  1.
</event>
<event>
12    1  0.8297444E-002  0.1735786E+03  0.7818608E-02  0.1174188E+00
         21   -1    0    0  501  502  0.00000000000E+00  0.00000000000E+00  0.93140433642E+02  0.93140433642E+02  0.00000000000E+00 0. -1.
         21   -1    0    0  502  503 -0.00000000000E+00 -0.00000000000E+00 -0.35720077065E+03  0.35720077065E+03  0.00000000000E+00 0. -1.
         -6    2    1    2    0  503  0.19496302064E+02 -0.11746431446E+02 -0.62663928924E+02  0.18446522403E+03  0.17199583263E+03 0.  0.
        -24    2    3    3    0    0  0.15050098888E+01 -0.66182718280E+02 -0.72383613299E+02  0.12612520189E+03  0.79282796525E+02 0.  0.
          6    2    1    2  501    0 -0.19496302064E+02  0.11746431446E+02 -0.20139640809E+03  0.26587598027E+03  0.17207974676E+03 0.  0.
         24    2    5    5    0    0 -0.22189061610E+02  0.54131474200E+02 -0.54951316465E+02  0.11332435732E+03  0.80001198909E+02 0.  0.
          5    1    5    5  501    0  0.26927595458E+01 -0.42385042754E+02 -0.14644509162E+03  0.15255162294E+03  0.47000000000E+01 0. -1.
        -13    1    6    6    0    0  0.90302468422E+01 -0.41235931754E+01  0.14421143182E+02  0.17507676870E+02  0.00000000000E+00 0.  1.
         14    1    6    6    0    0 -0.31219308452E+02  0.58255067375E+02 -0.69372459647E+02  0.95816680451E+02  0.00000000000E+00 0. -1.
         -5    1    3    3    0  503  0.17991292176E+02  0.54436286833E+02  0.97196843750E+01  0.58340022135E+02  0.47000000000E+01 0.  1.
         11    1    4    4    0    0  0.30872263315E+02 -0.12427802188E+02 -0.51677481503E+02  0.61466324145E+02  0.00000000000E+00 0. -1.
        -12    1    4    4    0    0 -0.29367253426E+02 -0.53754916091E+02 -0.20706131796E+02  0.64658877749E+02  0.00000000000E+00 0.  1.
</event>
<event>
12    1  0.8297444E-002  0.1921701E+03  0.7818608E-02  0.1156545E+00
         21   -1    0    0  501  502  0.00000000000E+00  0.00000000000E+00  0.31964401942E+03  0.31964401942E+03  0.00000000000E+00 0.  1.
         21   -1    0    0  502  503 -0.00000000000E+00 -0.00000000000E+00 -0.15687194945E+03  0.15687194945E+03  0.00000000000E+00 0.  1.
         -6    2    1    2    0  503 -0.28013487575E+02  0.81202464135E+02 -0.41048194353E+02  0.19638735362E+03  0.17176857319E+03 0.  0.
        -24    2    3    3    0    0 -0.32188945039E+02 -0.99403926576E+01 -0.62764043452E+02  0.10248249277E+03  0.73677653228E+02 0.  0.
          6    2    1    2  501    0  0.28013487575E+02 -0.81202464135E+02  0.20382026432E+03  0.28012861524E+03  0.17190330207E+03 0.  0.
         24    2    5    5    0    0 -0.11893588435E+02 -0.31679769417E+02  0.19794823776E+03  0.21608454679E+03  0.79774440109E+02 0.  0.
          5    1    5    5  501    0  0.39907076010E+02 -0.49522694718E+02  0.58720265668E+01  0.64044068452E+02  0.47000000000E+01 0. -1.
        -11    1    6    6    0    0 -0.34295602672E+02 -0.46504394426E+02  0.11186427286E+03  0.12590656300E+03  0.00000000000E+00 0.  1.
         12    1    6    6    0    0  0.22402014237E+02  0.14824625010E+02  0.86083964895E+02  0.90177983791E+02  0.00000000000E+00 0. -1.
         -5    1    3    3    0  503  0.41754574636E+01  0.91142856793E+02  0.21715849099E+02  0.93904860851E+02  0.47000000000E+01 0.  1.
         13    1    4    4    0    0 -0.24601011451E+02 -0.14689220361E+02  0.90999596656E+01  0.30063137314E+02  0.00000000000E+00 0. -1.
        -14    1    4    4    0    0 -0.75879335879E+01  0.47488277034E+01 -0.71864003118E+02  0.72419355457E+02  0.00000000000E+00 0.  1.
</event>
<event>
12    1  0.8297444E-002  0.2041956E+03  0.7818608E-02  0.1147399E+00
         21   -1    0    0  501  502  0.00000000000E+00  0.00000000000E+00  0.19444160141E+04  0.19444160141E+04  0.00000000000E+00 0.  1.
         21   -1    0    0  502  503 -0.00000000000E+00 -0.00000000000E+00 -0.12986224685E+03  0.12986224685E+03  0.00000000000E+00 0.  1.
         -6    2    1    2    0  503 -0.19204476706E+02 -0.98794311648E+02 -0.40873038960E+02  0.20824612999E+03  0.17767024906E+03 0.  0.
        -24    2    3    3    0    0  0.16328311885E+02 -0.77370195424E+02 -0.89738926555E+02  0.14396909839E+03  0.80132798791E+02 0.  0.
          6    2    1    2  501    0  0.19204476706E+02  0.98794311648E+02  0.18554268062E+04  0.18660321310E+04  0.17128383652E+03 0.  0.
         24    2    5    5    0    0  0.35557817444E+02  0.12428133271E+03  0.11543936842E+04  0.11643295243E+04  0.79550330458E+02 0.  0.
          5    1    5    5  501    0 -0.16353340738E+02 -0.25487021065E+02  0.70103312205E+03  0.70170260667E+03  0.47000000000E+01 0. -1.
        -11    1    6    6    0    0  0.11854335406E+02  0.78704047854E+01  0.43186349887E+03  0.43209784794E+03  0.00000000000E+00 0.  1.
         12    1    6    6    0    0  0.23703482038E+02  0.11641092793E+03  0.72253018533E+03  0.73223167639E+03  0.00000000000E+00 0. -1.
         -5    1    3    3    0  503 -0.35532788591E+02 -0.21424116223E+02  0.48865887595E+02  0.64277031601E+02  0.47000000000E+01 0.  1.
         11    1    4    4    0    0  0.48676964297E+02 -0.53317768636E+02 -0.60046092537E+02  0.93902952746E+02  0.00000000000E+00 0. -1.
        -12    1    4    4    0    0 -0.32348652412E+02 -0.24052426789E+02 -0.29692834018E+02  0.50066145641E+02  0.00000000000E+00 0.  1.
</event>
<event>
12    1  0.8297444E-002  0.2553808E+03  0.7818608E-02  0.1110887E+00
         21   -1    0    0  503  502  0.00000000000E+00  0.00000000000E+00  0.22151124319E+04  0.22151124319E+04  0.00000000000E+00 0.  1.
         21   -1    0    0  501  503 -0.00000000000E+00 -0.00000000000E+00 -0.30206937907E+02  0.30206937907E+02  0.00000000000E+00 0.  1.
          6    2    1    2  501    0  0.71674606633E+02 -0.17447502884E+03  0.83385729793E+03  0.87034642425E+03  0.16311382518E+03 0.  0.
         24    2    3    3    0    0  0.29887406075E+02 -0.16533082995E+03  0.50611762116E+03  0.53979359605E+03  0.83633363596E+02 0.  0.
         -6    2    1    2    0  502 -0.71674606633E+02  0.17447502884E+03  0.13510481961E+04  0.13749729456E+04  0.17216442145E+03 0.  0.
        -24    2    5    5    0    0 -0.10483414343E+03  0.17725342847E+03  0.11301753454E+04  0.11515581284E+04  0.79880135870E+02 0.  0.
          5    1    3    3  501    0  0.41787200558E+02 -0.91441988807E+01  0.32773967677E+03  0.33055282820E+03  0.47000000000E+01 0. -1.
        -11    1    4    4    0    0 -0.13434000600E+02 -0.76703803009E+02  0.31781106318E+03  0.32721219056E+03  0.00000000000E+00 0.  1.
         12    1    4    4    0    0  0.43321406676E+02 -0.88627026946E+02  0.18830655798E+03  0.21258140549E+03  0.00000000000E+00 0. -1.
         -5    1    5    5    0  502  0.33159536793E+02 -0.27783996364E+01  0.22087285067E+03  0.22341481721E+03  0.47000000000E+01 0.  1.
         13    1    6    6    0    0 -0.59363377430E+01  0.72629433707E+01  0.81461283754E+01  0.12423761899E+02  0.00000000000E+00 0. -1.
        -14    1    6    6    0    0 -0.98897805683E+02  0.16999048510E+03  0.11220292170E+04  0.11391343665E+04  0.00000000000E+00 0.  1.
</event>
<event>
12    1  0.8297444E-002  0.2582289E+03  0.7818608E-02  0.1108745E+00
         21   -1    0    0  503  502  0.00000000000E+00  0.00000000000E+00  0.24662842011E+03  0.24662842011E+03  0.00000000000E+00 0.  1.
         21   -1    0    0  501  503 -0.00000000000E+00 -0.00000000000E+00 -0.35740628625E+03  0.35740628625E+03  0.00000000000E+00 0. -1.
          6    2    1    2  501    0  0.93236156212E+02 -0.16809539579E+03 -0.20778834761E+03  0.33144855545E+03  0.17243289883E+03 0.  0.
         24    2    3    3    0    0  0.70842455687E+02 -0.35997955932E+02 -0.49129797550E+02  0.12373279547E+03  0.81126822367E+02 0.  0.
         -6    2    1    2    0  502 -0.93236156212E+02  0.16809539579E+03  0.97010481475E+02  0.27258615090E+03  0.16716199698E+03 0.  0.
        -24    2    5    5    0    0 -0.11906277076E+02  0.46904190955E+02  0.27046297257E+01  0.98754217575E+02  0.86042535434E+02 0.  0.
          5    1    3    3  501    0  0.22393700525E+02 -0.13209743986E+03 -0.15865855006E+03  0.20771575999E+03  0.47000000000E+01 0. -1.
        -11    1    4    4    0    0  0.86950967048E+02 -0.17506744647E+02 -0.34450048269E+02  0.95151261707E+02  0.00000000000E+00 0.  1.
         12    1    4    4    0    0 -0.16108511360E+02 -0.18491211286E+02 -0.14679749282E+02  0.28581533759E+02  0.00000000000E+00 0. -1.
         -5    1    5    5    0  502 -0.81329879136E+02  0.12119120484E+03  0.94305851749E+02  0.17383193333E+03  0.47000000000E+01 0.  1.
         13    1    6    6    0    0 -0.53500404350E+01  0.67201158075E+02 -0.17206903068E+02  0.69575111157E+02  0.00000000000E+00 0. -1.
        -14    1    6    6    0    0 -0.65562366411E+01 -0.20296967120E+02  0.19911532794E+02  0.29179106418E+02  0.00000000000E+00 0.  1.
</event>
<event>
12    1  0.8297444E-002  0.2033826E+03  0.7818608E-02  0.1148012E+00
         21   -1    0    0  501  502  0.00000000000E+00  0.00000000000E+00  0.29412045339E+03  0.29412045339E+03  0.00000000000E+00 0.  1.
         21   -1    0    0  502  503 -0.00000000000E+00 -0.00000000000E+00 -0.17024187674E+03  0.17024187674E+03  0.00000000000E+00 0.  1.
         -6    2    1    2    0  503 -0.37883949146E+02 -0.89949077402E+02 -0.39940692956E+02  0.20726735780E+03  0.17843337279E+03 0.  0.
        -24    2    3    3    0    0 -0.92739058972E+02 -0.47683342631E+02 -0.46460819906E+02  0.13755310197E+03  0.76733394636E+02 0.  0.
          6    2    1    2  501    0  0.37883949146E+02  0.89949077402E+02  0.16381926961E+03  0.25709497233E+03  0.17243851535E+03 0.  0.
         24    2    5    5    0    0  0.52992495090E+02  0.14530720898E+02  0.32225198416E+02  0.10459813226E+03  0.82963603309E+02 0.  0.
          5    1    5    5  501    0 -0.15108545944E+02  0.75418356504E+02  0.13159407119E+03  0.15249684007E+03  0.47000000000E+01 0. -1.
        -11    1    6    6    0    0  0.49694799004E+02  0.22317182581E+02  0.56744846216E+02  0.78661345390E+02  0.00000000000E+00 0.  1.
         12    1    6    6    0    0  0.32976960860E+01 -0.77864616832E+01 -0.24519647800E+02  0.25936786872E+02  0.00000000000E+00 0. -1.
         -5    1    3    3    0  503  0.54855109826E+02 -0.42265734771E+02  0.65201269508E+01  0.69714255825E+02  0.47000000000E+01 0.  1.
         11    1    4    4    0    0 -0.70028518546E+02  0.64633287936E+01 -0.19751706807E+02  0.73047230958E+02  0.00000000000E+00 0. -1.
        -12    1    4    4    0    0 -0.22710540426E+02 -0.54146671425E+02 -0.26709113100E+02  0.64505871015E+02  0.00000000000E+00 0.  1.
</event>
<event>
12    1  0.8297444E-002  0.2020092E+03  0.7818608E-02  0.1148082E+00
         21   -1    0    0  503  502  0.00000000000E+00  0.00000000000E+00  0.23375589802E+03  0.23375589802E+03  0.00000000000E+00 0. -1.
         21   -1    0    0  501  503 -0.00000000000E+00 -0.00000000000E+00 -0.30379395244E+03  0.30379395244E+03  0.00000000000E+00 0. -1.
          6    2    1    2  501    0 -0.22684726243E+02  0.10331678529E+03 -0.21038202881E+03  0.29157398076E+03  0.17194718167E+03 0.  0.
         24    2    3    3    0    0 -0.49081522781E+02  0.40475862921E+02 -0.19723322905E+03  0.22199845830E+03  0.79593199991E+02 0.  0.
         -6    2    1    2    0  502  0.22684726243E+02 -0.10331678529E+03  0.14034397439E+03  0.24597586970E+03  0.17210096571E+03 0.  0.
        -24    2    5    5    0    0 -0.86779612806E+01 -0.11826489300E+02  0.12315575848E+03  0.14763148910E+03  0.80078354547E+02 0.  0.
          5    1    3    3  501    0  0.26396796538E+02  0.62840922367E+02 -0.13148799757E+02  0.69575522466E+02  0.47000000000E+01 0. -1.
        -11    1    4    4    0    0  0.15181146112E+00  0.32735682703E+02 -0.21092586359E+02  0.38942844889E+02  0.00000000000E+00 0.  1.
         12    1    4    4    0    0 -0.49233334242E+02  0.77401802177E+01 -0.17614064269E+03  0.18305561341E+03  0.00000000000E+00 0. -1.
         -5    1    5    5    0  502  0.31362687523E+02 -0.91490295988E+02  0.17188215913E+02  0.98344380596E+02  0.47000000000E+01 0.  1.
         11    1    6    6    0    0 -0.14054762677E+02 -0.11869868769E+02  0.13414327683E+03  0.13539885102E+03  0.00000000000E+00 0. -1.
        -12    1    6    6    0    0  0.53768013969E+01  0.43379469471E-01 -0.10987518350E+02  0.12232638085E+02  0.00000000000E+00 0.  1.
</event>
<event>
12    1  0.8297444E-002  0.2683897E+03  0.7818608E-02  0.1102260E+00
         21   -1    0    0  501  502  0.00000000000E+00  0.00000000000E+00  0.55711904066E+03  0.55711904066E+03  0.00000000000E+00 0.  1.
         21   -1    0    0  502  503 -0.00000000000E+00 -0.00000000000E+00 -0.13418114404E+03  0.13418114404E+03  0.00000000000E+00 0.  1.
         -6    2    1    2    0  503 -0.20590936427E+03  0.10714485736E+02  0.14442290516E+03  0.30478022330E+03  0.17181252132E+03 0.  0.
        -24    2    3    3    0    0 -0.42450563648E+02 -0.29290638617E+01  0.19738977131E+02  0.98690199637E+02  0.86830285714E+02 0.  0.
          6    2    1    2  501    0  0.20590936427E+03 -0.10714485736E+02  0.27851499146E+03  0.38651996140E+03  0.17121218880E+03 0.  0.
         24    2    5    5    0    0  0.51928870036E+02 -0.27652885396E+02  0.52451188909E+02  0.11243268550E+03  0.80179124071E+02 0.  0.
          5    1    5    5  501    0  0.15398049423E+03  0.16938399660E+02  0.22606380255E+03  0.27408727590E+03  0.47000000000E+01 0. -1.
        -13    1    6    6    0    0  0.34594504685E+02  0.51279489904E+01 -0.12914858311E+02  0.37280949297E+02  0.00000000000E+00 0.  1.
         14    1    6    6    0    0  0.17334365351E+02 -0.32780834386E+02  0.65366047220E+02  0.75151736203E+02  0.00000000000E+00 0. -1.
         -5    1    3    3    0  503 -0.16345880062E+03  0.13643549598E+02  0.12468392803E+03  0.20609002366E+03  0.47000000000E+01 0.  1.
         13    1    4    4    0    0  0.16932300630E+02 -0.27094376432E+02  0.11930515322E+02  0.34104915111E+02  0.00000000000E+00 0. -1.
        -14    1    4    4    0    0 -0.59382864278E+02  0.24165312571E+02  0.78084618090E+01  0.64585284526E+02  0.00000000000E+00 0.  1.
</event>
<event>
12    1  0.8297444E-002  0.2785204E+03  0.7818608E-02  0.1096555E+00
         21   -1    0    0  501  502  0.00000000000E+00  0.00000000000E+00  0.72430999293E+02  0.72430999293E+02  0.00000000000E+00 0. -1.
         21   -1    0    0  502  503 -0.00000000000E+00 -0.00000000000E+00 -0.11425225514E+04  0.11425225514E+04  0.00000000000E+00 0.  1.
         -6    2    1    2    0  503  0.11294318210E+03 -0.18686997455E+03 -0.68901302641E+03  0.74317732948E+03  0.17290761325E+03 0.  0.
        -24    2    3    3    0    0  0.64938857842E+02 -0.25729442329E+02 -0.27886169022E+03  0.29987506821E+03  0.85335542413E+02 0.  0.
          6    2    1    2  501    0 -0.11294318210E+03  0.18686997455E+03 -0.38107852568E+03  0.47177622120E+03  0.17226552290E+03 0.  0.
         24    2    5    5    0    0  0.84915694402E+01  0.99699082345E+02 -0.15291201127E+03  0.19896271048E+03  0.78689663867E+02 0.  0.
          5    1    5    5  501    0 -0.12143475154E+03  0.87170892208E+02 -0.22816651441E+03  0.27281351071E+03  0.47000000000E+01 0. -1.
        -11    1    6    6    0    0 -0.62001413732E+01  0.31491780672E+02 -0.11533051022E+03  0.11971341024E+03  0.00000000000E+00 0.  1.
         12    1    6    6    0    0  0.14691710813E+02  0.68207301672E+02 -0.37581501052E+02  0.79249300245E+02  0.00000000000E+00 0. -1.
         -5    1    3    3    0  503  0.48004324259E+02 -0.16114053222E+03 -0.41015133619E+03  0.44330226128E+03  0.47000000000E+01 0.  1.
         11    1    4    4    0    0  0.60098358659E+02 -0.38192717424E+02 -0.11359443894E+03  0.13406786690E+03  0.00000000000E+00 0. -1.
        -12    1    4    4    0    0  0.48404991832E+01  0.12463275096E+02 -0.16526725128E+03  0.16580720130E+03  0.00000000000E+00 0.  1.
</event>
<event>
12    1  0.8297444E-002  0.2226524E+03  0.7818608E-02  0.1131988E+00
         21   -1    0    0  501  502  0.00000000000E+00  0.00000000000E+00  0.48555586128E+03  0.48555586128E+03  0.00000000000E+00 0. -1.
         21   -1    0    0  502  503 -0.00000000000E+00 -0.00000000000E+00 -0.14715768286E+03  0.14715768286E+03  0.00000000000E+00 0. -1.
         -6    2    1    2    0  503  0.37203318940E+02 -0.13534260209E+03 -0.60858742638E+01  0.22273556734E+03  0.17283630468E+03 0.  0.
        -24    2    3    3    0    0 -0.42116937527E+02 -0.48994029317E+02 -0.11012821448E+02  0.10528709390E+03  0.82400476760E+02 0.  0.
          6    2    1    2  501    0 -0.37203318940E+02  0.13534260209E+03  0.34448405268E+03  0.40997797680E+03  0.17236870956E+03 0.  0.
         24    2    5    5    0    0 -0.11560816216E+02  0.77834688836E+01  0.72858275861E+02  0.10876123915E+03  0.79538945938E+02 0.  0.
          5    1    5    5  501    0 -0.25642502724E+02  0.12755913320E+03  0.27162577682E+03  0.30121673765E+03  0.47000000000E+01 0. -1.
        -11    1    6    6    0    0 -0.62053717667E+01  0.43742950896E+02  0.43885123649E+02  0.62272437479E+02  0.00000000000E+00 0.  1.
         12    1    6    6    0    0 -0.53554444495E+01 -0.35959482013E+02  0.28973152212E+02  0.46488801673E+02  0.00000000000E+00 0. -1.
         -5    1    3    3    0  503  0.79320256467E+02 -0.86348572770E+02  0.49269471839E+01  0.11744847344E+03  0.47000000000E+01 0.  1.
         13    1    4    4    0    0 -0.17558502980E+02  0.21770316793E+02  0.56927307637E+01  0.28542160110E+02  0.00000000000E+00 0. -1.
        -14    1    4    4    0    0 -0.24558434547E+02 -0.70764346110E+02 -0.16705552211E+02  0.76744933790E+02  0.00000000000E+00 0.  1.
</event>
<event>
12    1  0.8297444E-002  0.3217156E+03  0.7818608E-02  0.1074904E+00
         21   -1    0    0  501  502  0.00000000000E+00  0.00000000000E+00  0.57010008297E+03  0.57010008297E+03  0.00000000000E+00 0.  1.
         21   -1    0    0  502  503 -0.00000000000E+00 -0.00000000000E+00 -0.18275680964E+03  0.18275680964E+03  0.00000000000E+00 0.  1.
         -6    2    1    2    0  503 -0.20499290859E+03 -0.17776289554E+03  0.16046353894E+03  0.35918780903E+03  0.17217896277E+03 0.  0.
        -24    2    3    3    0    0 -0.20534626553E+03 -0.95118164939E+02  0.12178800377E+03  0.26781952471E+03  0.75368600123E+02 0.  0.
          6    2    1    2  501    0  0.20499290859E+03  0.17776289554E+03  0.22687973439E+03  0.39366908359E+03  0.17285599177E+03 0.  0.
         24    2    5    5    0    0  0.20202933458E+03  0.92651277546E+02  0.17911096013E+03  0.29591062573E+03  0.77988788390E+02 0.  0.
          5    1    5    5  501    0  0.29635740091E+01  0.85111617998E+02  0.47768774256E+02  0.97758457859E+02  0.47000000000E+01 0. -1.
        -11    1    6    6    0    0  0.19312779273E+03  0.10528637586E+03  0.16484289413E+03  0.27487587200E+03  0.00000000000E+00 0.  1.
         12    1    6    6    0    0  0.89015418577E+01 -0.12635098309E+02  0.14268066007E+02  0.21034753726E+02  0.00000000000E+00 0. -1.
         -5    1    3    3    0  503  0.35335694165E+00 -0.82644730605E+02  0.38675535169E+02  0.91368284314E+02  0.47000000000E+01 0.  1.
         11    1    4    4    0    0 -0.12815638435E+03 -0.21877344162E+02  0.84547777464E+02  0.15508386026E+03  0.00000000000E+00 0. -1.
        -12    1    4    4    0    0 -0.77189881182E+02 -0.73240820777E+02  0.37240226303E+02  0.11273566446E+03  0.00000000000E+00 0.  1.
</event>
<event>
12    1  0.8297444E-002  0.2568056E+03  0.7818608E-02  0.1109209E+00
         21   -1    0    0  501  502  0.00000000000E+00  0.00000000000E+00  0.49371601123E+02  0.49371601123E+02  0.00000000000E+00 0. -1.
         21   -1    0    0  502  503 -0.00000000000E+00 -0.00000000000E+00 -0.20391758909E+04  0.20391758909E+04  0.00000000000E+00 0. -1.
         -6    2    1    2    0  503 -0.18866426114E+03 -0.27813012008E+02 -0.16090794869E+04  0.16293084400E+04  0.17070861293E+03 0.  0.
        -24    2    3    3    0    0 -0.19100019613E+03 -0.51326592528E+02 -0.11517507921E+04  0.11713455920E+04  0.80031961387E+02 0.  0.
          6    2    1    2  501    0  0.18866426114E+03  0.27813012008E+02 -0.38072480288E+03  0.45923905200E+03  0.17199233786E+03 0.  0.
         24    2    5    5    0    0  0.15734517784E+03 -0.17662130425E+02 -0.18710865812E+03  0.25784844876E+03  0.80041968659E+02 0.  0.
          5    1    5    5  501    0  0.31319083300E+02  0.45475142433E+02 -0.19361614477E+03  0.20139060324E+03  0.47000000000E+01 0. -1.
        -11    1    6    6    0    0  0.17358250895E+02 -0.31631743859E+02 -0.47514972303E+02  0.59661953427E+02  0.00000000000E+00 0.  1.
         12    1    6    6    0    0  0.13998692694E+03  0.13969613434E+02 -0.13959368582E+03  0.19818649534E+03  0.00000000000E+00 0. -1.
         -5    1    3    3    0  503  0.23359349958E+01  0.23513580520E+02 -0.45732869482E+03  0.45796284802E+03  0.47000000000E+01 0.  1.
         13    1    4    4    0    0 -0.13315890441E+03 -0.69222713363E+02 -0.89923877166E+03  0.91167617405E+03  0.00000000000E+00 0. -1.
        -14    1    4    4    0    0 -0.57841291719E+02  0.17896120836E+02 -0.25251202042E+03  0.25966941796E+03  0.00000000000E+00 0.  1.
</event>
<event>
12    1  0.8297444E-002  0.1903028E+03  0.7818608E-02  0.1158700E+00
         21   -1    0    0  501  502  0.00000000000E+00  0.00000000000E+00  0.10399831054E+03  0.10399831054E+03  0.00000000000E+00 0. -1.
         21   -1    0    0  502  503 -0.00000000000E+00 -0.00000000000E+00 -0.58808852575E+03  0.58808852575E+03  0.00000000000E+00 0.  1.
         -6    2    1    2    0  503  0.75947090982E+02  0.24872014295E+01 -0.18311832018E+02  0.18893211166E+03  0.17200544417E+03 0.  0.
        -24    2    3    3    0    0  0.91201162333E+02  0.34943122408E+02  0.29189215065E+02  0.12922856927E+03  0.79431347876E+02 0.  0.
          6    2    1    2  501    0 -0.75947090982E+02 -0.24872014295E+01 -0.46577838319E+03  0.50315472464E+03  0.17447357358E+03 0.  0.
         24    2    5    5    0    0  0.20437985635E+02  0.26399118974E+02 -0.24746350009E+03  0.26272182197E+03  0.81669744238E+02 0.  0.
          5    1    5    5  501    0 -0.96385076617E+02 -0.28886320404E+02 -0.21831488310E+03  0.24043290267E+03  0.47000000000E+01 0. -1.
        -11    1    6    6    0    0 -0.21694979313E+02  0.27693238891E+02 -0.17820412678E+03  0.18164332746E+03  0.00000000000E+00 0.  1.
         12    1    6    6    0    0  0.42132964948E+02 -0.12941199161E+01 -0.69259373306E+02  0.81078494513E+02  0.00000000000E+00 0. -1.
         -5    1    3    3    0  503 -0.15254071352E+02 -0.32455920979E+02 -0.47501047083E+02  0.59703542385E+02  0.47000000000E+01 0.  1.
         11    1    4    4    0    0  0.93004236960E+02  0.30726796444E+02 -0.17372431976E+01  0.97963983821E+02  0.00000000000E+00 0. -1.
        -12    1    4    4    0    0 -0.18030746264E+01  0.42163259640E+01  0.30926458262E+02  0.31264585451E+02  0.00000000000E+00 0.  1.
</event>
<event>
12    1  0.8297444E-002  0.2083963E+03  0.7818608E-02  0.1142918E+00
         21   -1    0    0  503  502  0.00000000000E+00  0.00000000000E+00  0.62413518846E+02  0.62413518846E+02  0.00000000000E+00 0. -1.
         21   -1    0    0  501  503 -0.00000000000E+00 -0.00000000000E+00 -0.11047133778E+04  0.11047133778E+04  0.00000000000E+00 0.  1.
          6    2    1    2  501    0 -0.54887553273E+02  0.10400368949E+03 -0.87643102951E+03  0.90077846805E+03  0.17158405541E+03 0.  0.
         24    2    3    3    0    0 -0.87142513859E+02  0.36985217056E+02 -0.42276568006E+03  0.44103267152E+03  0.82566779691E+02 0.  0.
         -6    2    1    2    0  502  0.54887553273E+02 -0.10400368949E+03 -0.16586882945E+03  0.26634842861E+03  0.17204536002E+03 0.  0.
        -24    2    5    5    0    0  0.76846009519E+02 -0.26921090018E+02 -0.47172639312E+02  0.12304882465E+03  0.79282413436E+02 0.  0.
          5    1    3    3  501    0  0.32254960586E+02  0.67018472438E+02 -0.45366534946E+03  0.45974579653E+03  0.47000000000E+01 0. -1.
        -11    1    4    4    0    0 -0.38519918436E+01  0.41995065545E+02 -0.14313025596E+03  0.14921358364E+03  0.00000000000E+00 0.  1.
         12    1    4    4    0    0 -0.83290522016E+02 -0.50098484890E+01 -0.27963542409E+03  0.29181908787E+03  0.00000000000E+00 0. -1.
         -5    1    5    5    0  502 -0.21958456246E+02 -0.77082599476E+02 -0.11869619014E+03  0.14329960396E+03  0.47000000000E+01 0.  1.
         13    1    6    6    0    0  0.14367566588E+02 -0.10032507546E+02  0.22127804914E+02  0.28226192227E+02  0.00000000000E+00 0. -1.
        -14    1    6    6    0    0  0.62478442931E+02 -0.16888582472E+02 -0.69300444225E+02  0.94822632419E+02  0.00000000000E+00 0.  1.
</event>
<event>
12    1  0.8297444E-002  0.2037692E+03  0.7818608E-02  0.1148166E+00
         21   -1    0    0  501  502  0.00000000000E+00  0.00000000000E+00  0.83987587867E+02  0.83987587867E+02  0.00000000000E+00 0. -1.
         21   -1    0    0  502  503 -0.00000000000E+00 -0.00000000000E+00 -0.49709061670E+03  0.49709061670E+03  0.00000000000E+00 0. -1.
         -6    2    1    2    0  503  0.10342034066E+03  0.16377714615E+02 -0.26208418484E+03  0.32744743163E+03  0.16604127240E+03 0.  0.
        -24    2    3    3    0    0  0.57843774129E+02 -0.37780300590E+02 -0.79691459975E+02  0.13174482534E+03  0.78947557859E+02 0.  0.
          6    2    1    2  501    0 -0.10342034066E+03 -0.16377714615E+02 -0.15101884400E+03  0.25363077294E+03  0.17480812721E+03 0.  0.
         24    2    5    5    0    0  0.20546294224E+01 -0.23442745179E+02 -0.11518782612E+03  0.14191311179E+03  0.79481521165E+02 0.  0.
          5    1    5    5  501    0 -0.10547497009E+03  0.70650305642E+01 -0.35831017878E+02  0.11171766115E+03  0.47000000000E+01 0. -1.
        -13    1    6    6    0    0  0.30646401319E+02 -0.17601821669E+02 -0.16504647853E+02  0.39005505261E+02  0.00000000000E+00 0.  1.
         14    1    6    6    0    0 -0.28591771897E+02 -0.58409235101E+01 -0.98683178269E+02  0.10290760653E+03  0.00000000000E+00 0. -1.
         -5    1    3    3    0  503  0.45576566534E+02  0.54158015205E+02 -0.18239272486E+03  0.19570260629E+03  0.47000000000E+01 0.  1.
         13    1    4    4    0    0  0.53476645347E+02 -0.16685995938E+02 -0.76350353688E+01  0.56537313547E+02  0.00000000000E+00 0. -1.
        -14    1    4    4    0    0  0.43671287817E+01 -0.21094304651E+02 -0.72056424607E+02  0.75207511790E+02  0.00000000000E+00 0.  1.
</event>
<event>
12    1  0.8297444E-002  0.2252914E+03  0.7818608E-02  0.1130192E+00
         21   -1    0    0  501  502  0.00000000000E+00  0.00000000000E+00  0.14747000437E+04  0.14747000437E+04  0.00000000000E+00 0. -1.
         21   -1    0    0  502  503 -0.00000000000E+00 -0.00000000000E+00 -0.12961434460E+03  0.12961434460E+03  0.00000000000E+00 0. -1.
         -6    2    1    2    0  503  0.63205255446E+02 -0.12980724210E+03 -0.15075685270E+02  0.22579525563E+03  0.17294911610E+03 0.  0.
        -24    2    3    3    0    0  0.41287729542E+02 -0.12073607747E+03 -0.70403732845E+02  0.16541357945E+03  0.78250173510E+02 0.  0.
          6    2    1    2  501    0 -0.63205255446E+02  0.12980724210E+03  0.13601613843E+04  0.13785191326E+04  0.17155518998E+03 0.  0.
         24    2    5    5    0    0 -0.17311246229E+02  0.42317794321E+02  0.28461833964E+03  0.29843784193E+03  0.77246820482E+02 0.  0.
          5    1    5    5  501    0 -0.45894009216E+02  0.87489447780E+02  0.10755430447E+04  0.10800812907E+04  0.47000000000E+01 0. -1.
        -13    1    6    6    0    0 -0.41826834773E+02  0.86074809225E+01  0.19470348734E+03  0.19933143459E+03  0.00000000000E+00 0.  1.
         14    1    6    6    0    0  0.24515588543E+02  0.33710313399E+02  0.89914852303E+02  0.99106407340E+02  0.00000000000E+00 0. -1.
         -5    1    3    3    0  503  0.21917525903E+02 -0.90711646262E+01  0.55328047575E+02  0.60381676176E+02  0.47000000000E+01 0.  1.
         13    1    4    4    0    0  0.18954107362E+02 -0.11123001197E+03 -0.27526091096E+02  0.11614241016E+03  0.00000000000E+00 0. -1.
        -14    1    4    4    0    0  0.22333622180E+02 -0.95060655092E+01 -0.42877641750E+02  0.49271169289E+02  0.00000000000E+00 0.  1.
</event>
<event>
12    1  0.8297444E-002  0.2012293E+03  0.7818608E-02  0.1149070E+00
         21   -1    0    0  503  502  0.00000000000E+00  0.00000000000E+00  0.15931682861E+04  0.15931682861E+04  0.00000000000E+00 0. -1.
         21   -1    0    0  501  503 -0.00000000000E+00 -0.00000000000E+00 -0.64174081517E+02  0.64174081517E+02  0.00000000000E+00 0.  1.
          6    2    1    2  501    0 -0.95473037572E+02 -0.32719076045E+02  0.11740381476E+03  0.23148098986E+03  0.17208763497E+03 0.  0.
         24    2    3    3    0    0 -0.72482267106E+02  0.45419458992E+02  0.58772684158E+02  0.13101255870E+03  0.79959088508E+02 0.  0.
         -6    2    1    2    0  502  0.95473037572E+02  0.32719076045E+02  0.14115903898E+04  0.14258613777E+04  0.17409078402E+03 0.  0.
        -24    2    5    5    0    0  0.10360367721E+02  0.13448483167E+02  0.28667116819E+03  0.29755252486E+03  0.77903449596E+02 0.  0.
          5    1    3    3  501    0 -0.22990770466E+02 -0.78138535036E+02  0.58631130600E+02  0.10046843116E+03  0.47000000000E+01 0. -1.
        -11    1    4    4    0    0 -0.74013039300E+02  0.61717123906E+01  0.53163170060E+02  0.91336425762E+02  0.00000000000E+00 0.  1.
         12    1    4    4    0    0  0.15307721939E+01  0.39247746601E+02  0.56095140978E+01  0.39676132941E+02  0.00000000000E+00 0. -1.
         -5    1    5    5    0  502  0.85112669851E+02  0.19270592877E+02  0.11249192216E+04  0.11283088529E+04  0.47000000000E+01 0.  1.
         13    1    6    6    0    0  0.21436358133E+02  0.21025871932E+02  0.28161570083E+03  0.28321194836E+03  0.00000000000E+00 0. -1.
        -14    1    6    6    0    0 -0.11075990411E+02 -0.75773887645E+01  0.50554673629E+01  0.14340576500E+02  0.00000000000E+00 0.  1.
</event>
<event>
12    1  0.8297444E-002  0.2277673E+03  0.7818608E-02  0.1129492E+00
         21   -1    0    0  501  502  0.00000000000E+00  0.00000000000E+00  0.24685977123E+02  0.24685977123E+02  0.00000000000E+00 0.  1.
         21   -1    0    0  502  503 -0.00000000000E+00 -0.00000000000E+00 -0.20850894157E+04  0.20850894157E+04  0.00000000000E+00 0.  1.
         -6    2    1    2    0  503  0.13115243707E+03  0.47507489266E+02 -0.85480818256E+03  0.88285328343E+03  0.17109929222E+03 0.  0.
        -24    2    3    3    0    0  0.51106878428E+02 -0.30495380694E+02 -0.28686194062E+03  0.30399512902E+03  0.81125730991E+02 0.  0.
          6    2    1    2  501    0 -0.13115243707E+03 -0.47507489266E+02 -0.12055952560E+04  0.12269221094E+04  0.18005559673E+03 0.  0.
         24    2    5    5    0    0 -0.11304322979E+03 -0.73254288771E+02 -0.11641813579E+04  0.11746914476E+04  0.80229672672E+02 0.  0.
          5    1    5    5  501    0 -0.18109207284E+02  0.25746799505E+02 -0.41413898088E+02  0.52230661762E+02  0.47000000000E+01 0. -1.
        -11    1    6    6    0    0 -0.23672944851E+01 -0.36970964857E+02 -0.39620449976E+03  0.39793273546E+03  0.00000000000E+00 0.  1.
         12    1    6    6    0    0 -0.11067593530E+03 -0.36283323915E+02 -0.76797685818E+03  0.77675871218E+03  0.00000000000E+00 0. -1.
         -5    1    3    3    0  503  0.80045558645E+02  0.78002869961E+02 -0.56794624195E+03  0.57885815441E+03  0.47000000000E+01 0.  1.
         11    1    4    4    0    0  0.49991644794E+02  0.15485077123E+02 -0.12011636107E+03  0.13102248799E+03  0.00000000000E+00 0. -1.
        -12    1    4    4    0    0  0.11152336343E+01 -0.45980457817E+02 -0.16674557954E+03  0.17297264103E+03  0.00000000000E+00 0.  1.
</event>
<event>
12    1  0.8297444E-002  0.2092073E+03  0.7818608E-02  0.1142256E+00
         21   -1    0    0  501  502  0.00000000000E+00  0.00000000000E+00  0.19048411529E+04  0.19048411529E+04  0.00000000000E+00 0. -1.
         21   -1    0    0  502  503 -0.00000000000E+00 -0.00000000000E+00 -0.34000607600E+02  0.34000607600E+02  0.00000000000E+00 0. -1.
         -6    2    1    2    0  503 -0.56085834204E+02 -0.10457845460E+03  0.38305253318E+03  0.43645955691E+03  0.17229459562E+03 0.  0.
        -24    2    3    3    0    0 -0.94847449352E+02 -0.37397097086E+02  0.26273161296E+03  0.29322893362E+03  0.80998305805E+02 0.  0.
          6    2    1    2  501    0  0.56085834204E+02  0.10457845460E+03  0.14877880121E+04  0.15023822036E+04  0.17192103618E+03 0.  0.
         24    2    5    5    0    0  0.13213801449E+02 -0.46157953320E+01  0.55808976498E+03  0.56530039491E+03  0.88906920980E+02 0.  0.
          5    1    5    5  501    0  0.42872032755E+02  0.10919424993E+03  0.92969824711E+03  0.93708180864E+03  0.47000000000E+01 0. -1.
        -13    1    6    6    0    0  0.43559396822E+02  0.13749198485E+02  0.18611639517E+03  0.19163969856E+03  0.00000000000E+00 0.  1.
         14    1    6    6    0    0 -0.30345595373E+02 -0.18364993817E+02  0.37197336980E+03  0.37366069635E+03  0.00000000000E+00 0. -1.
         -5    1    3    3    0  503  0.38761615148E+02 -0.67181357516E+02  0.12032092022E+03  0.14323062329E+03  0.47000000000E+01 0.  1.
         13    1    4    4    0    0 -0.67620485959E+02 -0.38970421871E+02  0.25218923900E+03  0.26398984104E+03  0.00000000000E+00 0. -1.
        -14    1    4    4    0    0 -0.27226963393E+02  0.15733247853E+01  0.10542373963E+02  0.29239092587E+02  0.00000000000E+00 0.  1.
</event>
<event>
12    1  0.8297444E-002  0.2104783E+03  0.7818608E-02  0.1141739E+00
         21   -1    0    0  501  502  0.00000000000E+00  0.00000000000E+00  0.48118098457E+03  0.48118098457E+03  0.00000000000E+00 0.  1.
         21   -1    0    0  502  503 -0.00000000000E+00 -0.00000000000E+00 -0.17442229135E+03  0.17442229135E+03  0.00000000000E+00 0. -1.
         -6    2    1    2    0  503  0.12051080171E+03  0.11548741004E+02 -0.72980082588E+02  0.22277164391E+03  0.17217690358E+03 0.  0.
        -24    2    3    3    0    0  0.65223752934E+02  0.17093626341E+01 -0.11390589667E+03  0.15312623209E+03  0.78841802292E+02 0.  0.
          6    2    1    2  501    0 -0.12051080171E+03 -0.11548741004E+02  0.37973877581E+03  0.43283163202E+03  0.16877635225E+03 0.  0.
         24    2    5    5    0    0 -0.19478974747E+02  0.31734016291E+02  0.23974376175E+03  0.25478242225E+03  0.77785173023E+02 0.  0.
          5    1    5    5  501    0 -0.10103182696E+03 -0.43282757295E+02  0.13999501406E+03  0.17804920977E+03  0.47000000000E+01 0. -1.
        -13    1    6    6    0    0 -0.35044065350E+02 -0.10847998384E+02  0.14757700629E+03  0.15206820302E+03  0.00000000000E+00 0.  1.
         14    1    6    6    0    0  0.15565090603E+02  0.42582014675E+02  0.92166755462E+02  0.10271421923E+03  0.00000000000E+00 0. -1.
         -5    1    3    3    0  503  0.55287048777E+02  0.98393783699E+01  0.40925814087E+02  0.69645411821E+02  0.47000000000E+01 0.  1.
         11    1    4    4    0    0  0.35994900625E+02 -0.16849583180E+02 -0.11155519716E+03  0.11842340706E+03  0.00000000000E+00 0. -1.
        -12    1    4    4    0    0  0.29228852308E+02  0.18558945814E+02 -0.23506995105E+01  0.34702825032E+02  0.00000000000E+00 0.  1.
</event>
<event>
12    1  0.8297444E-002  0.1860449E+03  0.7818608E-02  0.1165430E+00
         21   -1    0    0  503  502  0.00000000000E+00  0.00000000000E+00  0.43610989030E+02  0.43610989030E+02  0.00000000000E+00 0.  1.
         21   -1    0    0  501  503 -0.00000000000E+00 -0.00000000000E+00 -0.91586800208E+03  0.91586800208E+03  0.00000000000E+00 0.  1.
          6    2    1    2  501    0  0.12958144269E+02  0.78044288849E+01 -0.23697039408E+03  0.30127672384E+03  0.18542889215E+03 0.  0.
         24    2    3    3    0    0  0.40024574447E+02 -0.60703976933E+02 -0.98019645676E+02  0.14393825495E+03  0.76311407561E+02 0.  0.
         -6    2    1    2    0  502 -0.12958144269E+02 -0.78044288849E+01 -0.63528661896E+03  0.65820226727E+03  0.17150018597E+03 0.  0.
        -24    2    5    5    0    0  0.40148394693E+01 -0.70108089664E+02 -0.37143140473E+03  0.38651956189E+03  0.80652465120E+02 0.  0.
          5    1    3    3  501    0 -0.27066430179E+02  0.68508405818E+02 -0.13895074841E+03  0.15733846889E+03  0.47000000000E+01 0. -1.
        -11    1    4    4    0    0  0.25392387954E+02 -0.56951727874E+02 -0.10878490157E+03  0.12538910432E+03  0.00000000000E+00 0.  1.
         12    1    4    4    0    0  0.14632186494E+02 -0.37522490597E+01  0.10765255891E+02  0.18549150627E+02  0.00000000000E+00 0. -1.
         -5    1    5    5    0  502 -0.16972983738E+02  0.62303660779E+02 -0.26385521423E+03  0.27168270538E+03  0.47000000000E+01 0.  1.
         13    1    6    6    0    0 -0.36199372353E+02 -0.50586511720E+02 -0.21135564071E+03  0.22031930597E+03  0.00000000000E+00 0. -1.
        -14    1    6    6    0    0  0.40214211822E+02 -0.19521577944E+02 -0.16007576402E+03  0.16620025591E+03  0.00000000000E+00 0.  1.
</event>
<event>
12    1  0.8297444E-002  0.2312928E+03  0.7818608E-02  0.1126325E+00
         21   -1    0    0  503  502  0.00000000000E+00  0.00000000000E+00  0.34672716579E+03  0.34672716579E+03  0.00000000000E+00 0. -1.
         21   -1    0    0  501  503 -0.00000000000E+00 -0.00000000000E+00 -0.15742283435E+03  0.15742283435E+03  0.00000000000E+00 0.  1.
          6    2    1    2  501    0  0.86383654182E+02 -0.12316827040E+03  0.47432434212E+02  0.23281261926E+03  0.17122885659E+03 0.  0.
         24    2    3    3    0    0  0.13882888408E+01 -0.43070575145E+02  0.67642989607E+02  0.11419386247E+03  0.81287529138E+02 0.  0.
         -6    2    1    2    0  502 -0.86383654182E+02  0.12316827040E+03  0.14187189723E+03  0.27133738087E+03  0.17568090531E+03 0.  0.
        -24    2    5    5    0    0 -0.52671650285E+02  0.84819298216E+02  0.17050453967E+03  0.21260867335E+03  0.78498623174E+02 0.  0.
          5    1    3    3  501    0  0.84995365341E+02 -0.80097695252E+02 -0.20210555395E+02  0.11861875679E+03  0.47000000000E+01 0. -1.
        -11    1    4    4    0    0 -0.86801473466E+01 -0.41080464534E+02 -0.36686499422E+01  0.42147461568E+02  0.00000000000E+00 0.  1.
         12    1    4    4    0    0  0.10068436187E+02 -0.19901106112E+01  0.71311639549E+02  0.72046400900E+02  0.00000000000E+00 0. -1.
         -5    1    5    5    0  502 -0.33712003897E+02  0.38348972181E+02 -0.28632642442E+02  0.58728707523E+02  0.47000000000E+01 0.  1.
         13    1    6    6    0    0  0.71595986552E+01 -0.66259173082E+01 -0.38845667398E+00  0.97628649312E+01  0.00000000000E+00 0. -1.
        -14    1    6    6    0    0 -0.59831248940E+02  0.91445215524E+02  0.17089299635E+03  0.20284580842E+03  0.00000000000E+00 0.  1.
</event>
<event>
12    1  0.8297444E-002  0.2059345E+03  0.7818608E-02  0.1144843E+00
         21   -1    0    0  501  502  0.00000000000E+00  0.00000000000E+00  0.36584735474E+02  0.36584735474E+02  0.00000000000E+00 0. -1.
         21   -1    0    0  502  503 -0.00000000000E+00 -0.00000000000E+00 -0.17778379441E+04  0.17778379441E+04  0.00000000000E+00 0. -1.
         -6    2    1    2    0  503 -0.89917453240E+02  0.69571603659E+02 -0.14058706484E+04  0.14208614148E+04  0.17160863461E+03 0.  0.
        -24    2    3    3    0    0 -0.42522583938E+02 -0.30435197089E+02 -0.63237961271E+03  0.63947923801E+03  0.79342610971E+02 0.  0.
          6    2    1    2  501    0  0.89917453240E+02 -0.69571603659E+02 -0.33538256018E+03  0.39356126477E+03  0.17170804007E+03 0.  0.
         24    2    5    5    0    0  0.96002626093E+01 -0.66156521166E+02 -0.89848761392E+02  0.13515954217E+03  0.75673321453E+02 0.  0.
          5    1    5    5  501    0  0.80317190630E+02 -0.34150824926E+01 -0.24553379878E+03  0.25840172260E+03  0.47000000000E+01 0. -1.
        -11    1    6    6    0    0 -0.15703332931E+02 -0.27012450426E+02 -0.82183996338E+02  0.87923127772E+02  0.00000000000E+00 0.  1.
         12    1    6    6    0    0  0.25303595541E+02 -0.39144070740E+02 -0.76647650543E+01  0.47236414393E+02  0.00000000000E+00 0. -1.
         -5    1    3    3    0  503 -0.47394869302E+02  0.10000680075E+03 -0.77349103572E+03  0.78138217677E+03  0.47000000000E+01 0.  1.
         13    1    4    4    0    0 -0.66266914659E+02 -0.22944180679E+02 -0.46737607608E+03  0.47260780346E+03  0.00000000000E+00 0. -1.
        -14    1    4    4    0    0  0.23744330721E+02 -0.74910164098E+01 -0.16500353663E+03  0.16687143455E+03  0.00000000000E+00 0.  1.
</event>
<event>
12    1  0.8297444E-002  0.2560452E+03  0.7818608E-02  0.1109609E+00
         21   -1    0    0  503  502  0.00000000000E+00  0.00000000000E+00  0.27076302432E+03  0.27076302432E+03  0.00000000000E+00 0.  1.
         21   -1    0    0  501  503 -0.00000000000E+00 -0.00000000000E+00 -0.24251328960E+03  0.24251328960E+03  0.00000000000E+00 0.  1.
          6    2    1    2  501    0 -0.18732624348E+03 -0.28852544911E+02  0.28789122277E+02  0.25765856577E+03  0.17214973746E+03 0.  0.
         24    2    3    3    0    0 -0.18271695919E+03  0.18465598363E+02 -0.31800028882E+01  0.20017494073E+03  0.79582843495E+02 0.  0.
         -6    2    1    2    0  502  0.18732624348E+03  0.28852544911E+02 -0.53938756113E+00  0.25561774814E+03  0.17151254001E+03 0.  0.
        -24    2    5    5    0    0  0.38169502344E+02 -0.32598180879E+02 -0.23484134946E+01  0.94219830860E+02  0.79701374992E+02 0.  0.
          5    1    3    3  501    0 -0.46092842983E+01 -0.47318143275E+02  0.31969125166E+02  0.57483625047E+02  0.47000000000E+01 0. -1.
        -13    1    4    4    0    0 -0.15951665488E+02 -0.17505439045E+02  0.15877742367E+02  0.28513132600E+02  0.00000000000E+00 0.  1.
         14    1    4    4    0    0 -0.16676529370E+03  0.35971037408E+02 -0.19057745256E+02  0.17166180812E+03  0.00000000000E+00 0. -1.
         -5    1    5    5    0  502  0.14915674114E+03  0.61450725790E+02  0.18090259334E+01  0.16139791728E+03  0.47000000000E+01 0.  1.
         11    1    6    6    0    0  0.40032574920E+02 -0.44988388426E+02  0.24170091305E+02  0.64890334115E+02  0.00000000000E+00 0. -1.
        -12    1    6    6    0    0 -0.18630725761E+01  0.12390207548E+02 -0.26518504800E+02  0.29329496745E+02  0.00000000000E+00 0.  1.
</event>
<event>
12    1  0.8297444E-002  0.1783257E+03  0.7818608E-02  0.1171110E+00
         21   -1    0    0  501  502  0.00000000000E+00  0.00000000000E+00  0.74145695164E+02  0.74145695164E+02  0.00000000000E+00 0. -1.
         21   -1    0    0  502  503 -0.00000000000E+00 -0.00000000000E+00 -0.59649157571E+03  0.59649157571E+03  0.00000000000E+00 0. -1.
         -6    2    1    2    0  503  0.10553297675E+01  0.11741888044E+02 -0.44371076186E+03  0.47574357132E+03  0.17121249897E+03 0.  0.
        -24    2    3    3    0    0  0.56719427115E+02 -0.28662072063E+02 -0.25240024925E+03  0.27238975660E+03  0.80322387232E+02 0.  0.
          6    2    1    2  501    0 -0.10553297675E+01 -0.11741888044E+02 -0.78635118680E+02  0.19489369955E+03  0.17793562482E+03 0.  0.
         24    2    5    5    0    0  0.17235700785E+02  0.23406545239E+02  0.21948139709E+02  0.86685307875E+02  0.78661846045E+02 0.  0.
          5    1    5    5  501    0 -0.18291030553E+02 -0.35148433283E+02 -0.10058325839E+03  0.10820839168E+03  0.47000000000E+01 0. -1.
        -13    1    6    6    0    0  0.47170422050E+02  0.22904427091E+01  0.12635793701E+02  0.48887197983E+02  0.00000000000E+00 0.  1.
         14    1    6    6    0    0 -0.29934721265E+02  0.21116102530E+02  0.93123460075E+01  0.37798109892E+02  0.00000000000E+00 0. -1.
         -5    1    3    3    0  503 -0.55664097348E+02  0.40403960107E+02 -0.19131051261E+03  0.20335381472E+03  0.47000000000E+01 0.  1.
         11    1    4    4    0    0  0.22916950122E+02 -0.54453000282E+02 -0.12941417599E+03  0.14226153658E+03  0.00000000000E+00 0. -1.
        -12    1    4    4    0    0  0.33802476993E+02  0.25790928220E+02 -0.12298607326E+03  0.13012822002E+03  0.00000000000E+00 0.  1.
</event>
<event>
12    1  0.8297444E-002  0.2238523E+03  0.7818608E-02  0.1131091E+00
         21   -1    0    0  501  502  0.00000000000E+00  0.00000000000E+00  0.22766690137E+03  0.22766690137E+03  0.00000000000E+00 0.  1.
         21   -1    0    0  502  503 -0.00000000000E+00 -0.00000000000E+00 -0.57744606457E+03  0.57744606457E+03  0.00000000000E+00 0.  1.
         -6    2    1    2    0  503 -0.57326975173E+02  0.13165931334E+03 -0.49164047510E+03  0.54009508463E+03  0.17138199092E+03 0.  0.
        -24    2    3    3    0    0 -0.26844076607E+02  0.77117249291E+02 -0.13295746381E+03  0.17598021753E+03  0.81385964339E+02 0.  0.
          6    2    1    2  501    0  0.57326975173E+02 -0.13165931334E+03  0.14186131190E+03  0.26501788130E+03  0.17172445582E+03 0.  0.
         24    2    5    5    0    0 -0.34230697335E+02 -0.77128880119E+02  0.58686737240E+02  0.12975341660E+03  0.79190979305E+02 0.  0.
          5    1    5    5  501    0  0.91557672508E+02 -0.54530433216E+02  0.83174574658E+02  0.13526446470E+03  0.47000000000E+01 0. -1.
        -11    1    6    6    0    0 -0.29588276895E+02 -0.77787061080E+02  0.75457610850E+02  0.11233941444E+03  0.00000000000E+00 0.  1.
         12    1    6    6    0    0 -0.46424204405E+01  0.65818096154E+00 -0.16770873609E+02  0.17414002163E+02  0.00000000000E+00 0. -1.
         -5    1    3    3    0  503 -0.30482898566E+02  0.54542064044E+02 -0.35868301129E+03  0.36411486710E+03  0.47000000000E+01 0.  1.
         13    1    4    4    0    0 -0.37096440498E+02  0.26694323975E+02 -0.16374943561E+02  0.48547622050E+02  0.00000000000E+00 0. -1.
        -14    1    4    4    0    0  0.10252363891E+02  0.50422925316E+02 -0.11658252025E+03  0.12743259548E+03  0.00000000000E+00 0.  1.
</event>
<event>
12    1  0.8297444E-002  0.1850781E+03  0.7818608E-02  0.1163140E+00
         21   -1    0    0  503  502  0.00000000000E+00  0.00000000000E+00  0.63617550025E+02  0.63617550025E+02  0.00000000000E+00 0. -1.
         21   -1    0    0  501  503 -0.00000000000E+00 -0.00000000000E+00 -0.68481194814E+03  0.68481194814E+03  0.00000000000E+00 0. -1.
          6    2    1    2  501    0 -0.46515945909E+02  0.47727939240E+02 -0.48526220484E+03  0.51935855070E+03  0.17266211900E+03 0.  0.
         24    2    3    3    0    0  0.21392125350E+02 -0.21893609990E+02 -0.17574843148E+03  0.19489047499E+03  0.78471860487E+02 0.  0.
         -6    2    1    2    0  502  0.46515945909E+02 -0.47727939240E+02 -0.13593219327E+03  0.22907094746E+03  0.17191349102E+03 0.  0.
        -24    2    5    5    0    0 -0.42473738899E+02 -0.22604918750E+02 -0.55119283132E+02  0.10617608749E+03  0.76943000554E+02 0.  0.
          5    1    3    3  501    0 -0.67908071259E+02  0.69621549230E+02 -0.30951377336E+03  0.32446807572E+03  0.47000000000E+01 0. -1.
        -11    1    4    4    0    0 -0.20641855395E+02 -0.33313480339E+02 -0.10157661274E+03  0.10887461790E+03  0.00000000000E+00 0.  1.
         12    1    4    4    0    0  0.42033980745E+02  0.11419870349E+02 -0.74171818735E+02  0.86015857087E+02  0.00000000000E+00 0. -1.
         -5    1    5    5    0  502  0.88989684808E+02 -0.25123020490E+02 -0.80812910140E+02  0.12289485997E+03  0.47000000000E+01 0.  1.
         13    1    6    6    0    0 -0.16483974656E+02 -0.25825521681E+02  0.12935228777E+02  0.33256565278E+02  0.00000000000E+00 0. -1.
        -14    1    6    6    0    0 -0.25989764243E+02  0.32206029311E+01 -0.68054511909E+02  0.72919522214E+02  0.00000000000E+00 0.  1.
</event>
<event>
12    1  0.8297444E-002  0.2214799E+03  0.7818608E-02  0.1134593E+00
         21   -1    0    0  501  502  0.00000000000E+00  0.00000000000E+00  0.40195079125E+03  0.40195079125E+03  0.00000000000E+00 0. -1.
         21   -1    0    0  502  503 -0.00000000000E+00 -0.00000000000E+00 -0.11686654341E+03  0.11686654341E+03  0.00000000000E+00 0.  1.
         -6    2    1    2    0  503 -0.87877808158E+02 -0.11115382972E+03  0.13475528440E+03  0.25113814243E+03  0.15758710887E+03 0.  0.
        -24    2    3    3    0    0 -0.12346567062E+02 -0.83411448761E+02  0.11932128672E+03  0.16907166714E+03  0.85074976700E+02 0.  0.
          6    2    1    2  501    0  0.87877808158E+02  0.11115382972E+03  0.15032896344E+03  0.26767919223E+03  0.17022241238E+03 0.  0.
         24    2    5    5    0    0  0.22146406665E+02  0.28195751336E+02  0.27146349877E+01  0.85979605341E+02  0.78100317349E+02 0.  0.
          5    1    5    5  501    0  0.65731401493E+02  0.82958078383E+02  0.14761432845E+03  0.18169958689E+03  0.47000000000E+01 0. -1.
        -11    1    6    6    0    0  0.40658874446E+02  0.63898502045E+01 -0.23316525254E+02  0.47303642638E+02  0.00000000000E+00 0.  1.
         12    1    6    6    0    0 -0.18512467782E+02  0.21805901131E+02  0.26031160242E+02  0.38675962703E+02  0.00000000000E+00 0. -1.
         -5    1    3    3    0  503 -0.75531241096E+02 -0.27742380958E+02  0.15433997673E+02  0.82066475292E+02  0.47000000000E+01 0.  1.
         13    1    4    4    0    0 -0.34877063615E+02 -0.37892873581E+01  0.50246039701E+02  0.61281585902E+02  0.00000000000E+00 0. -1.
        -14    1    4    4    0    0  0.22530496553E+02 -0.79622161403E+02  0.69075247024E+02  0.10779008124E+03  0.00000000000E+00 0.  1.
</event>
<event>
12    1  0.8297444E-002  0.1751075E+03  0.7818608E-02  0.1174208E+00
         21   -1    0    0  501  502  0.00000000000E+00  0.00000000000E+00  0.40525818163E+03  0.40525818163E+03  0.00000000000E+00 0. -1.
         21   -1    0    0  502  503 -0.00000000000E+00 -0.00000000000E+00 -0.75654998411E+02  0.75654998411E+02  0.00000000000E+00 0. -1.
         -6    2    1    2    0  503 -0.22834646735E+02 -0.23633627217E+02  0.11697710853E+03  0.20546356590E+03  0.16568543558E+03 0.  0.
        -24    2    3    3    0    0 -0.76580764982E+02 -0.13483182453E+02  0.93869933768E+02  0.14590092424E+03  0.80181702746E+02 0.  0.
          6    2    1    2  501    0  0.22834646735E+02  0.23633627217E+02  0.21262607469E+03  0.27544961414E+03  0.17199614201E+03 0.  0.
         24    2    5    5    0    0 -0.99953898823E+01 -0.11769921300E+02  0.21193890697E+03  0.22693379454E+03  0.79639236259E+02 0.  0.
          5    1    5    5  501    0  0.32830036618E+02  0.35403548517E+02  0.68716771825E+00  0.48515819599E+02  0.47000000000E+01 0. -1.
        -13    1    6    6    0    0 -0.33643973624E+02 -0.29662919852E+02  0.80122164158E+02  0.91822475270E+02  0.00000000000E+00 0.  1.
         14    1    6    6    0    0  0.23648583742E+02  0.17892998552E+02  0.13181674281E+03  0.13511131927E+03  0.00000000000E+00 0. -1.
         -5    1    3    3    0  503  0.53746118247E+02 -0.10150444765E+02  0.23107174764E+02  0.59562641656E+02  0.47000000000E+01 0.  1.
         13    1    4    4    0    0 -0.71319449906E+02 -0.40754674314E+02  0.80739105413E+02  0.11517903696E+03  0.00000000000E+00 0. -1.
        -14    1    4    4    0    0 -0.52613150764E+01  0.27271491861E+02  0.13130828355E+02  0.30721887278E+02  0.00000000000E+00 0.  1.
</event>
<event>
12    1  0.8297444E-002  0.2032738E+03  0.7818608E-02  0.1149608E+00
         21   -1    0    0  501  502  0.00000000000E+00  0.00000000000E+00  0.76384405217E+03  0.76384405217E+03  0.00000000000E+00 0. -1.
         21   -1    0    0  502  503 -0.00000000000E+00 -0.00000000000E+00 -0.98380532953E+02  0.98380532953E+02  0.00000000000E+00 0. -1.
         -6    2    1    2    0  503 -0.61119496412E+02  0.57496630037E+02  0.27988124634E+02  0.19312435837E+03  0.17167477208E+03 0.  0.
        -24    2    3    3    0    0  0.25369392153E+02  0.35543758215E+02 -0.23891016718E+02  0.89800635376E+02  0.74742281393E+02 0.  0.
          6    2    1    2  501    0  0.61119496412E+02 -0.57496630037E+02  0.63747539459E+03  0.66910022675E+03  0.18514529276E+03 0.  0.
         24    2    5    5    0    0  0.65919290135E+02  0.31868243833E+02  0.30258031919E+03  0.32242181637E+03  0.83904948202E+02 0.  0.
          5    1    5    5  501    0 -0.47997937229E+01 -0.89364873870E+02  0.33489507540E+03  0.34667841039E+03  0.47000000000E+01 0. -1.
        -11    1    6    6    0    0  0.82276044447E+02  0.94659797610E+01  0.20878896058E+03  0.22461474200E+03  0.00000000000E+00 0.  1.
         12    1    6    6    0    0 -0.16356754312E+02  0.22402264072E+02  0.93791358602E+02  0.97807074364E+02  0.00000000000E+00 0. -1.
         -5    1    3    3    0  503 -0.86488888565E+02  0.21952871822E+02  0.51879141353E+02  0.10332372300E+03  0.47000000000E+01 0.  1.
         11    1    4    4    0    0 -0.21038772392E+02  0.33348179774E+02 -0.54087765614E+01  0.39799320370E+02  0.00000000000E+00 0. -1.
        -12    1    4    4    0    0  0.46408164545E+02  0.21955784405E+01 -0.18482240157E+02  0.50001315006E+02  0.00000000000E+00 0.  1.
</event>
<event>
12    1  0.8297444E-002  0.1961386E+03  0.7818608E-02  0.1153366E+00
         21   -1    0    0  501  502  0.00000000000E+00  0.00000000000E+00  0.15588575687E+03  0.15588575687E+03  0.00000000000E+00 0.  1.
         21   -1    0    0  502  503 -0.00000000000E+00 -0.00000000000E+00 -0.29138112661E+03  0.29138112661E+03  0.00000000000E+00 0.  1.
         -6    2    1    2    0  503  0.81529804582E+02 -0.41650148259E+02  0.21797241890E+02  0.19584831107E+03  0.17175446809E+03 0.  0.
        -24    2    3    3    0    0  0.63588420196E+02 -0.94770722160E+02  0.15393928850E+02  0.13921986359E+03  0.78231837586E+02 0.  0.
          6    2    1    2  501    0 -0.81529804582E+02  0.41650148259E+02 -0.15729261163E+03  0.25141857241E+03  0.17346033839E+03 0.  0.
         24    2    5    5    0    0 -0.10234909846E+02 -0.36430494862E+02 -0.89176099982E+02  0.12555555956E+03  0.79874197286E+02 0.  0.
          5    1    5    5  501    0 -0.71294894736E+02  0.78080643121E+02 -0.68116511651E+02  0.12586301286E+03  0.47000000000E+01 0. -1.
        -11    1    6    6    0    0  0.19661329948E+02 -0.47749197689E+02 -0.73827332851E+02  0.90094555059E+02  0.00000000000E+00 0.  1.
         12    1    6    6    0    0 -0.29896239794E+02  0.11318702828E+02 -0.15348767131E+02  0.35461004498E+02  0.00000000000E+00 0. -1.
         -5    1    3    3    0  503  0.17941384386E+02  0.53120573900E+02  0.64033130399E+01  0.56628447472E+02  0.47000000000E+01 0.  1.
         13    1    4    4    0    0  0.63326215238E+02 -0.92482919928E+02 -0.11092362516E+02  0.11263365625E+03  0.00000000000E+00 0. -1.
        -14    1    4    4    0    0  0.26220495878E+00 -0.22878022312E+01  0.26486291366E+02  0.26586207341E+02  0.00000000000E+00 0.  1.
</event>
<event>
12    1  0.8297444E-002  0.1984860E+03  0.7818608E-02  0.1151425E+00
         21   -1    0    0  503  502  0.00000000000E+00  0.00000000000E+00  0.46134494932E+03  0.46134494932E+03  0.00000000000E+00 0.  1.
         21   -1    0    0  501  503 -0.00000000000E+00 -0.00000000000E+00 -0.15120394229E+03  0.15120394229E+03  0.00000000000E+00 0.  1.
          6    2    1    2  501    0  0.70674536639E+02  0.63143240338E+02 -0.47805041269E+02  0.20416171805E+03  0.17439818296E+03 0.  0.
         24    2    3    3    0    0  0.93984492873E+02  0.75218523929E+02  0.54710197055E+01  0.14458323866E+03  0.79896618221E+02 0.  0.
         -6    2    1    2    0  502 -0.70674536639E+02 -0.63143240338E+02  0.35794604830E+03  0.40838717356E+03  0.17225780417E+03 0.  0.
        -24    2    5    5    0    0 -0.10842811257E+02 -0.46609966846E+01  0.28850760492E+03  0.29955796974E+03  0.79743637287E+02 0.  0.
          5    1    3    3  501    0 -0.23309956234E+02 -0.12075283591E+02 -0.53276060975E+02  0.59578479390E+02  0.47000000000E+01 0. -1.
        -11    1    4    4    0    0  0.99292066725E+01 -0.16975500505E+02  0.20985041167E+01  0.19777777481E+02  0.00000000000E+00 0.  1.
         12    1    4    4    0    0  0.84055286200E+02  0.92194024435E+02  0.33725155888E+01  0.12480546118E+03  0.00000000000E+00 0. -1.
         -5    1    5    5    0  502 -0.59831725383E+02 -0.58482243653E+02  0.69438443381E+02  0.10882920382E+03  0.47000000000E+01 0.  1.
         13    1    6    6    0    0 -0.19224556364E+02 -0.11750534524E+02  0.28766685768E+03  0.28854788101E+03  0.00000000000E+00 0. -1.
        -14    1    6    6    0    0  0.83817451072E+01  0.70895378394E+01  0.84074724496E+00  0.11010088726E+02  0.00000000000E+00 0.  1.
</event>
<event>
12    1  0.8297444E-002  0.1815065E+03  0.7818608E-02  0.1166481E+00
         21   -1    0    0  501  502  0.00000000000E+00  0.00000000000E+00  0.81300029253E+02  0.81300029253E+02  0.00000000000E+00 0. -1.
         21   -1    0    0  502  503 -0.00000000000E+00 -0.00000000000E+00 -0.53056730258E+03  0.53056730258E+03  0.00000000000E+00 0.  1.
         -6    2    1    2    0  503  0.31239154735E+02 -0.41433410409E+02 -0.37378604110E+03  0.41529154025E+03  0.17337371944E+03 0.  0.
        -24    2    3    3    0    0  0.50765800136E+02 -0.59683318670E+02 -0.15955638768E+03  0.19934991981E+03  0.90237933750E+02 0.  0.
          6    2    1    2  501    0 -0.31239154735E+02  0.41433410409E+02 -0.75481232225E+02  0.19657579159E+03  0.17393105856E+03 0.  0.
         24    2    5    5    0    0 -0.75836650837E+02  0.65607754883E+02 -0.67026039464E+02  0.14493360076E+03  0.80359713481E+02 0.  0.
          5    1    5    5  501    0  0.44597496102E+02 -0.24174344473E+02 -0.84551927614E+01  0.51642190832E+02  0.47000000000E+01 0. -1.
        -11    1    6    6    0    0 -0.21045532369E+01 -0.16081628553E+02 -0.18679528483E+02  0.24738082092E+02  0.00000000000E+00 0.  1.
         12    1    6    6    0    0 -0.73732097600E+02  0.81689383436E+02 -0.48346510981E+02  0.12019551866E+03  0.00000000000E+00 0. -1.
         -5    1    3    3    0  503 -0.19526645401E+02  0.18249908260E+02 -0.21422965343E+03  0.21594162044E+03  0.47000000000E+01 0.  1.
         11    1    4    4    0    0  0.73798006589E+02 -0.26177377148E+02 -0.11382559034E+03  0.13815811908E+03  0.00000000000E+00 0. -1.
        -12    1    4    4    0    0 -0.23032206453E+02 -0.33505941521E+02 -0.45730797338E+02  0.61191800729E+02  0.00000000000E+00 0.  1.
</event>
<event>
12    1  0.8297444E-002  0.1770198E+03  0.7818608E-02  0.1171134E+00
         21   -1    0    0  501  502  0.00000000000E+00  0.00000000000E+00  0.21063134065E+03  0.21063134065E+03  0.00000000000E+00 0. -1.
         21   -1    0    0  502  503 -0.00000000000E+00 -0.00000000000E+00 -0.54923197564E+03  0.54923197564E+03  0.00000000000E+00 0. -1.
         -6    2    1    2    0  503 -0.25477855210E+02 -0.33828472124E+02 -0.49407026795E+03  0.52426447433E+03  0.17015969776E+03 0.  0.
        -24    2    3    3    0    0  0.33744033950E+02  0.18469610174E+02 -0.33563041237E+03  0.34715547004E+03  0.79933474456E+02 0.  0.
          6    2    1    2  501    0  0.25477855210E+02  0.33828472124E+02  0.15546963295E+03  0.23559884196E+03  0.17187937902E+03 0.  0.
         24    2    5    5    0    0  0.69641601241E+02  0.13292480021E+02  0.46724239404E+02  0.11635198015E+03  0.79548639759E+02 0.  0.
          5    1    5    5  501    0 -0.44163746031E+02  0.20535992102E+02  0.10874539355E+03  0.11924686182E+03  0.47000000000E+01 0. -1.
        -11    1    6    6    0    0 -0.15529368245E+02 -0.97358232697E+01  0.80359830890E+01  0.20013109629E+02  0.00000000000E+00 0.  1.
         12    1    6    6    0    0  0.85170969487E+02  0.23028303291E+02  0.38688256315E+02  0.96338870517E+02  0.00000000000E+00 0. -1.
         -5    1    3    3    0  503 -0.59221889160E+02 -0.52298082298E+02 -0.15843985557E+03  0.17710900429E+03  0.47000000000E+01 0.  1.
         11    1    4    4    0    0  0.55217241372E+02 -0.24638658002E+01 -0.25971994368E+03  0.26553618119E+03  0.00000000000E+00 0. -1.
        -12    1    4    4    0    0 -0.21473207422E+02  0.20933475974E+02 -0.75910468699E+02  0.81619288844E+02  0.00000000000E+00 0.  1.
</event>
<event>
12    1  0.8297444E-002  0.2409597E+03  0.7818608E-02  0.1119260E+00
         21   -1    0    0  503  502  0.00000000000E+00  0.00000000000E+00  0.11736052463E+04  0.11736052463E+04  0.00000000000E+00 0. -1.
         21   -1    0    0  501  503 -0.00000000000E+00 -0.00000000000E+00 -0.49735726495E+02  0.49735726495E+02  0.00000000000E+00 0. -1.
          6    2    1    2  501    0  0.21581386407E+02  0.16714421226E+03  0.61553496582E+03  0.66078824427E+03  0.17133261713E+03 0.  0.
         24    2    3    3    0    0  0.22670114410E+02  0.91076457058E+02  0.53858923848E+03  0.55248208717E+03  0.79682079054E+02 0.  0.
         -6    2    1    2    0  502 -0.21581386407E+02 -0.16714421226E+03  0.50833455397E+03  0.56255272851E+03  0.17221675197E+03 0.  0.
        -24    2    5    5    0    0 -0.42881914458E+02 -0.17602109019E+03  0.50046029238E+03  0.53772118702E+03  0.76559048747E+02 0.  0.
          5    1    3    3  501    0 -0.10887280035E+01  0.76067755201E+02  0.76945727340E+02  0.10830615710E+03  0.47000000000E+01 0. -1.
        -11    1    4    4    0    0 -0.13690011532E+02 -0.63896922620E+01  0.32888797976E+02  0.36192784022E+02  0.00000000000E+00 0.  1.
         12    1    4    4    0    0  0.36360125942E+02  0.97466149320E+02  0.50570044050E+03  0.51628930315E+03  0.00000000000E+00 0. -1.
         -5    1    5    5    0  502  0.21300528051E+02  0.88768779283E+01  0.78742615919E+01  0.24831541487E+02  0.47000000000E+01 0.  1.
         11    1    6    6    0    0  0.10434729844E+02 -0.37670875787E+01  0.91955323764E+01  0.14409453544E+02  0.00000000000E+00 0. -1.
        -12    1    6    6    0    0 -0.53316644302E+02 -0.17225400261E+03  0.49126476000E+03  0.52331173348E+03  0.00000000000E+00 0.  1.
</event>
<event>
12    1  0.8297444E-002  0.2402112E+03  0.7818608E-02  0.1119661E+00
         21   -1    0    0  503  502  0.00000000000E+00  0.00000000000E+00  0.63837849562E+03  0.63837849562E+03  0.00000000000E+00 0. -1.
         21   -1    0    0  501  503 -0.00000000000E+00 -0.00000000000E+00 -0.11595744920E+03  0.11595744920E+03  0.00000000000E+00 0.  1.
          6    2    1    2  501    0 -0.16550740802E+03 -0.33240376135E+02  0.43841444203E+03  0.49990861675E+03  0.17089112734E+03 0.  0.
         24    2    3    3    0    0 -0.14130821257E+03  0.29743375845E+02  0.25148991832E+03  0.30112375405E+03  0.81090424154E+02 0.  0.
         -6    2    1    2    0  502  0.16550740802E+03  0.33240376135E+02  0.84006604391E+02  0.25442732806E+03  0.17081724436E+03 0.  0.
        -24    2    5    5    0    0  0.70990912772E+02  0.49665224340E+02  0.10457115943E+03  0.15620241047E+03  0.77186277587E+02 0.  0.
          5    1    3    3  501    0 -0.24199195453E+02 -0.62983751980E+02  0.18692452371E+03  0.19878486270E+03  0.47000000000E+01 0. -1.
        -13    1    4    4    0    0 -0.77901673532E+02 -0.14795458635E+02  0.78529220988E+02  0.11159934984E+03  0.00000000000E+00 0.  1.
         14    1    4    4    0    0 -0.63406539036E+02  0.44538834481E+02  0.17296069733E+03  0.18952440421E+03  0.00000000000E+00 0. -1.
         -5    1    5    5    0  502  0.94516495249E+02 -0.16424848205E+02 -0.20564555035E+02  0.98224917595E+02  0.47000000000E+01 0.  1.
         13    1    6    6    0    0  0.70671207272E+02  0.56125876070E+01  0.74643604904E+02  0.10294458912E+03  0.00000000000E+00 0. -1.
        -14    1    6    6    0    0  0.31970549992E+00  0.44052636733E+02  0.29927554523E+02  0.53257821345E+02  0.00000000000E+00 0.  1.
</event>
<event>
12    1  0.8297444E-002  0.1886108E+03  0.7818608E-02  0.1160277E+00
         21   -1    0    0  503  502  0.00000000000E+00  0.00000000000E+00  0.14858261865E+03  0.14858261865E+03  0.00000000000E+00 0.  1.
         21   -1    0    0  501  503 -0.00000000000E+00 -0.00000000000E+00 -0.29383315831E+03  0.29383315831E+03  0.00000000000E+00 0.  1.
          6    2    1    2  501    0  0.14783469957E+02 -0.75826102078E+02 -0.17008587731E+03  0.25217691436E+03  0.16939847028E+03 0.  0.
         24    2    3    3    0    0 -0.39053947525E+02  0.25938915768E+01 -0.89529335300E+02  0.12743875105E+03  0.81811944714E+02 0.  0.
         -6    2    1    2    0  502 -0.14783469957E+02  0.75826102078E+02  0.24835337660E+02  0.19023886260E+03  0.17206359902E+03 0.  0.
        -24    2    5    5    0    0 -0.32783431680E+02  0.51816291978E+01 -0.37546469714E+02  0.94175237528E+02  0.79734781003E+02 0.  0.
          5    1    3    3  501    0  0.53837417482E+02 -0.78419993654E+02 -0.80556542014E+02  0.12473816331E+03  0.47000000000E+01 0. -1.
        -13    1    4    4    0    0 -0.30532901563E+02 -0.22482069410E+02 -0.42652390047E+01  0.38156176257E+02  0.00000000000E+00 0.  1.
         14    1    4    4    0    0 -0.85210459624E+01  0.25075960987E+02 -0.85264096295E+02  0.89282574788E+02  0.00000000000E+00 0. -1.
         -5    1    5    5    0  502  0.17999961723E+02  0.70644472880E+02  0.62381807374E+02  0.96063625071E+02  0.47000000000E+01 0.  1.
         13    1    6    6    0    0 -0.25568529408E+02  0.41767923614E+02 -0.23592088366E+02  0.54358953012E+02  0.00000000000E+00 0. -1.
        -14    1    6    6    0    0 -0.72149022715E+01 -0.36586294416E+02 -0.13954381348E+02  0.39816284516E+02  0.00000000000E+00 0.  1.
</event>
<event>
12    1  0.8297444E-002  0.1942514E+03  0.7818608E-02  0.1155190E+00
         21   -1    0    0  501  502  0.00000000000E+00  0.00000000000E+00  0.91181264668E+03  0.91181264668E+03  0.00000000000E+00 0.  1.
         21   -1    0    0  502  503 -0.00000000000E+00 -0.00000000000E+00 -0.83602485796E+02  0.83602485796E+02  0.00000000000E+00 0.  1.
         -6    2    1    2    0  503 -0.73414193113E+01  0.90004922361E+02  0.59583628494E+02  0.20318417797E+03  0.17198493802E+03 0.  0.
        -24    2    3    3    0    0  0.12320485536E+02 -0.13940011948E+02  0.11165884440E+01  0.82222925319E+02  0.80082734602E+02 0.  0.
          6    2    1    2  501    0  0.73414193113E+01 -0.90004922361E+02  0.76862653239E+03  0.79223095451E+03  0.16937637527E+03 0.  0.
         24    2    5    5    0    0 -0.29374524847E+02 -0.10459473934E+03  0.40567366952E+03  0.42710386159E+03  0.77740981712E+02 0.  0.
          5    1    5    5  501    0  0.36715944158E+02  0.14589816981E+02  0.36295286287E+03  0.36512709291E+03  0.47000000000E+01 0. -1.
        -13    1    6    6    0    0  0.23074008751E+02 -0.18555484265E+02  0.13682232924E+03  0.13998951980E+03  0.00000000000E+00 0.  1.
         14    1    6    6    0    0 -0.52448533598E+02 -0.86039255077E+02  0.26885134029E+03  0.28711434179E+03  0.00000000000E+00 0. -1.
         -5    1    3    3    0  503 -0.19661904847E+02  0.10394493431E+03  0.58467040050E+02  0.12096125265E+03  0.47000000000E+01 0.  1.
         11    1    4    4    0    0 -0.24518184158E+02 -0.31182561770E+02 -0.81749829850E+01  0.40500911839E+02  0.00000000000E+00 0. -1.
        -12    1    4    4    0    0  0.36838669694E+02  0.17242549822E+02  0.92915714290E+01  0.41722013480E+02  0.00000000000E+00 0.  1.
</event>
<event>
12    1  0.8297444E-002  0.2006593E+03  0.7818608E-02  0.1149657E+00
         21   -1    0    0  503  502  0.00000000000E+00  0.00000000000E+00  0.11056463958E+04  0.11056463958E+04  0.00000000000E+00 0. -1.
         21   -1    0    0  501  503 -0.00000000000E+00 -0.00000000000E+00 -0.90220932282E+02  0.90220932282E+02  0.00000000000E+00 0. -1.
          6    2    1    2  501    0  0.35151649795E+02  0.95784202897E+02  0.43091612797E+02  0.20304444129E+03  0.17017610302E+03 0.  0.
         24    2    3    3    0    0  0.77244610345E+02  0.17891384020E+02  0.30784767162E+02  0.11353099532E+03  0.75198095450E+02 0.  0.
         -6    2    1    2    0  502 -0.35151649795E+02 -0.95784202897E+02  0.97233385068E+03  0.99282288675E+03  0.17278285583E+03 0.  0.
        -24    2    5    5    0    0 -0.17396497063E+02  0.16404653353E+02  0.33565935725E+03  0.34607866722E+03  0.80817628225E+02 0.  0.
          5    1    3    3  501    0 -0.42092960550E+02  0.77892818878E+02  0.12306845636E+02  0.89513445974E+02  0.47000000000E+01 0. -1.
        -13    1    4    4    0    0  0.12788382171E+02 -0.12788723404E+02  0.37697750400E+02  0.41811655673E+02  0.00000000000E+00 0.  1.
         14    1    4    4    0    0  0.64456228174E+02  0.30680107424E+02 -0.69129832384E+01  0.71719339645E+02  0.00000000000E+00 0. -1.
         -5    1    5    5    0  502 -0.17755152732E+02 -0.11218885625E+03  0.63667449343E+03  0.64674421953E+03  0.47000000000E+01 0.  1.
         13    1    6    6    0    0 -0.40515491505E+02 -0.16292068995E+02  0.19502964525E+03  0.19985869781E+03  0.00000000000E+00 0. -1.
        -14    1    6    6    0    0  0.23118994442E+02  0.32696722348E+02  0.14062971201E+03  0.14621996941E+03  0.00000000000E+00 0.  1.
</event>
<event>
12    1  0.8297444E-002  0.1739992E+03  0.7818608E-02  0.1173800E+00
         21   -1    0    0  501  502  0.00000000000E+00  0.00000000000E+00  0.19891599418E+03  0.19891599418E+03  0.00000000000E+00 0. -1.
         21   -1    0    0  502  503 -0.00000000000E+00 -0.00000000000E+00 -0.30867293042E+03  0.30867293042E+03  0.00000000000E+00 0. -1.
         -6    2    1    2    0  503 -0.12379869094E+02 -0.18166349679E+02 -0.23567538201E+03  0.29280724010E+03  0.17236564841E+03 0.  0.
        -24    2    3    3    0    0 -0.98350078807E+01 -0.16649859772E+02 -0.25905910008E+03  0.26877259155E+03  0.68943044786E+02 0.  0.
          6    2    1    2  501    0  0.12379869094E+02  0.18166349679E+02  0.12591844577E+03  0.21478168450E+03  0.17260486549E+03 0.  0.
         24    2    5    5    0    0  0.49536891227E+02 -0.68140143520E+01  0.14790967173E+02  0.94881436878E+02  0.79267773843E+02 0.  0.
          5    1    5    5  501    0 -0.37157022133E+02  0.24980364031E+02  0.11112747860E+03  0.11990024762E+03  0.47000000000E+01 0. -1.
        -13    1    6    6    0    0 -0.11259458453E+02 -0.26827678066E+02 -0.40089551240E+00  0.29097429995E+02  0.00000000000E+00 0.  1.
         14    1    6    6    0    0  0.60796349681E+02  0.20013663714E+02  0.15191862685E+02  0.65784006883E+02  0.00000000000E+00 0. -1.
         -5    1    3    3    0  503 -0.25448612137E+01 -0.15164899065E+01  0.23383718071E+02  0.24034648553E+02  0.47000000000E+01 0.  1.
         11    1    4    4    0    0 -0.76741309804E+01 -0.28104673921E+02 -0.40431432125E+02  0.49834382571E+02  0.00000000000E+00 0. -1.
        -12    1    4    4    0    0 -0.21608769003E+01  0.11454814149E+02 -0.21862766796E+03  0.21893820898E+03  0.00000000000E+00 0.  1.
</event>
<event>
12    1  0.8297444E-002  0.1845068E+03  0.7818608E-02  0.1163910E+00
         21   -1    0    0  501  502  0.00000000000E+00  0.00000000000E+00  0.12812645141E+03  0.12812645141E+03  0.00000000000E+00 0. -1.
         21   -1    0    0  502  503 -0.00000000000E+00 -0.00000000000E+00 -0.45651646594E+03  0.45651646594E+03  0.00000000000E+00 0. -1.
         -6    2    1    2    0  503  0.12137908877E+01 -0.64016039938E+02 -0.35482353557E+03  0.39992812382E+03  0.17304114011E+03 0.  0.
        -24    2    3    3    0    0 -0.21802222176E+02 -0.50075461540E+02 -0.96717662842E+02  0.14038080998E+03  0.85846239088E+02 0.  0.
          6    2    1    2  501    0 -0.12137908877E+01  0.64016039938E+02  0.26433521042E+02  0.18471479353E+03  0.17123462634E+03 0.  0.
         24    2    5    5    0    0 -0.63725674233E+02  0.38984641253E+02 -0.64725644919E+01  0.10962014030E+03  0.79961973821E+02 0.  0.
          5    1    5    5  501    0  0.62511883346E+02  0.25031398686E+02  0.32906085534E+02  0.75094653237E+02  0.47000000000E+01 0. -1.
        -11    1    6    6    0    0 -0.28811949865E+02 -0.13562001295E+02 -0.28561906344E+02  0.42776615436E+02  0.00000000000E+00 0.  1.
         12    1    6    6    0    0 -0.34913724368E+02  0.52546642548E+02  0.22089341852E+02  0.66843524860E+02  0.00000000000E+00 0. -1.
         -5    1    3    3    0  503  0.23016013064E+02 -0.13940578399E+02 -0.25810587273E+03  0.25954731384E+03  0.47000000000E+01 0.  1.
         11    1    4    4    0    0  0.19070968416E+02 -0.28124033710E+02 -0.86414863871E+02  0.92855758067E+02  0.00000000000E+00 0. -1.
        -12    1    4    4    0    0 -0.40873190592E+02 -0.21951427830E+02 -0.10302798971E+02  0.47525051916E+02  0.00000000000E+00 0.  1.
</event>
<event>
12    1  0.8297444E-002  0.1982155E+03  0.7818608E-02  0.1151746E+00
         21   -1    0    0  501  502  0.00000000000E+00  0.00000000000E+00  0.95490013100E+02  0.95490013100E+02  0.00000000000E+00 0. -1.
         21   -1    0    0  502  503 -0.00000000000E+00 -0.00000000000E+00 -0.44592225229E+03  0.44592225229E+03  0.00000000000E+00 0. -1.
         -6    2    1    2    0  503  0.69626036501E+02 -0.66519607780E+02 -0.25457154304E+03  0.32123356685E+03  0.17062148389E+03 0.  0.
        -24    2    3    3    0    0  0.33862263451E+02  0.22319201189E+02 -0.17569688471E+03  0.19707768431E+03  0.79532501085E+02 0.  0.
          6    2    1    2  501    0 -0.69626036501E+02  0.66519607780E+02 -0.95860696153E+02  0.22017869855E+03  0.17325340703E+03 0.  0.
         24    2    5    5    0    0 -0.67407095457E+02 -0.88321238232E+01 -0.10758274661E+03  0.14374373520E+03  0.66831812114E+02 0.  0.
          5    1    5    5  501    0 -0.22189410440E+01  0.75351731603E+02  0.11722050461E+02  0.76434963348E+02  0.47000000000E+01 0. -1.
        -11    1    6    6    0    0 -0.16064344988E+01 -0.64981495698E+01 -0.64973052180E+02  0.65316951010E+02  0.00000000000E+00 0.  1.
         12    1    6    6    0    0 -0.65800660958E+02 -0.23339742534E+01 -0.42609694434E+02  0.78426784188E+02  0.00000000000E+00 0. -1.
         -5    1    3    3    0  503  0.35763773050E+02 -0.88838808970E+02 -0.78874658333E+02  0.12415588254E+03  0.47000000000E+01 0.  1.
         11    1    4    4    0    0  0.19721793467E+02  0.40017696586E+02 -0.41333432803E+02  0.60817907271E+02  0.00000000000E+00 0. -1.
        -12    1    4    4    0    0  0.14140469984E+02 -0.17698495396E+02 -0.13436345190E+03  0.13625977704E+03  0.00000000000E+00 0.  1.
</event>
<event>
12    1  0.8297444E-002  0.2393379E+03  0.7818608E-02  0.1120264E+00
         21   -1    0    0  501  502  0.00000000000E+00  0.00000000000E+00  0.70536109211E+02  0.70536109211E+02  0.00000000000E+00 0.  1.
         21   -1    0    0  502  503 -0.00000000000E+00 -0.00000000000E+00 -0.10558600501E+04  0.10558600501E+04  0.00000000000E+00 0. -1.
         -6    2    1    2    0  503 -0.16422168482E+03  0.26737186932E+02 -0.22186746978E+03  0.32635531157E+03  0.17204353029E+03 0.  0.
        -24    2    3    3    0    0 -0.11068686188E+03 -0.40320603398E+02 -0.18328485684E+03  0.23215641278E+03  0.80161891192E+02 0.  0.
          6    2    1    2  501    0  0.16422168482E+03 -0.26737186932E+02 -0.76345647113E+03  0.80004084776E+03  0.17180202516E+03 0.  0.
         24    2    5    5    0    0  0.16999325222E+03  0.19646657380E+02 -0.54106986679E+03  0.57274662480E+03  0.77449328741E+02 0.  0.
          5    1    5    5  501    0 -0.57715674060E+01 -0.46383844312E+02 -0.22238660434E+03  0.22729422296E+03  0.47000000000E+01 0. -1.
        -13    1    6    6    0    0  0.73999671204E+02  0.29286726292E+02 -0.14833837207E+03  0.16833875461E+03  0.00000000000E+00 0.  1.
         14    1    6    6    0    0  0.95993581018E+02 -0.96400689124E+01 -0.39273149472E+03  0.40440787019E+03  0.00000000000E+00 0. -1.
         -5    1    3    3    0  503 -0.53534822937E+02  0.67057790330E+02 -0.38582612941E+02  0.94198898784E+02  0.47000000000E+01 0.  1.
         11    1    4    4    0    0 -0.68805788407E+02 -0.49979440339E+02 -0.16463920048E+03  0.18530582104E+03  0.00000000000E+00 0. -1.
        -12    1    4    4    0    0 -0.41881073471E+02  0.96588369409E+01 -0.18645656359E+02  0.46850591749E+02  0.00000000000E+00 0.  1.
</event>
<event>
12    1  0.8297444E-002  0.1841974E+03  0.7818608E-02  0.1163875E+00
         21   -1    0    0  501  502  0.00000000000E+00  0.00000000000E+00  0.60801659814E+03  0.60801659814E+03  0.00000000000E+00 0. -1.
         21   -1    0    0  502  503 -0.00000000000E+00 -0.00000000000E+00 -0.59610009381E+02  0.59610009381E+02  0.00000000000E+00 0.  1.
         -6    2    1    2    0  503  0.51253676781E+02  0.47107425561E+02  0.18901465753E+03  0.26392278277E+03  0.17053634679E+03 0.  0.
        -24    2    3    3    0    0  0.92066122151E+02  0.61622039172E+02  0.16476746105E+03  0.21405950728E+03  0.79998186712E+02 0.  0.
          6    2    1    2  501    0 -0.51253676781E+02 -0.47107425561E+02  0.35939193122E+03  0.40370382475E+03  0.17020037885E+03 0.  0.
         24    2    5    5    0    0  0.30587115826E+02 -0.52161802590E+01  0.12417415479E+03  0.15111268453E+03  0.80330831666E+02 0.  0.
          5    1    5    5  501    0 -0.81840792607E+02 -0.41891245302E+02  0.23521777643E+03  0.25259114022E+03  0.47000000000E+01 0. -1.
        -13    1    6    6    0    0  0.34961259512E+02  0.32264126186E+02  0.58864147124E+02  0.75685212042E+02  0.00000000000E+00 0.  1.
         14    1    6    6    0    0 -0.43741436858E+01 -0.37480306445E+02  0.65310007667E+02  0.75427472486E+02  0.00000000000E+00 0. -1.
         -5    1    3    3    0  503 -0.40812445369E+02 -0.14514613611E+02  0.24247196485E+02  0.49863275491E+02  0.47000000000E+01 0.  1.
         13    1    4    4    0    0  0.31839423491E+02 -0.18095420127E+02  0.48183007060E+02  0.60521031775E+02  0.00000000000E+00 0. -1.
        -14    1    4    4    0    0  0.60226698660E+02  0.79717459300E+02  0.11658445399E+03  0.15353847551E+03  0.00000000000E+00 0.  1.
</event>
<event>
12    1  0.8297444E-002  0.2076152E+03  0.7818608E-02  0.1143900E+00
         21   -1    0    0  501  502  0.00000000000E+00  0.00000000000E+00  0.67058730442E+03  0.67058730442E+03  0.00000000000E+00 0. -1.
         21   -1    0    0  502  503 -0.00000000000E+00 -0.00000000000E+00 -0.65063984400E+02  0.65063984400E+02  0.00000000000E+00 0. -1.
         -6    2    1    2    0  503 -0.97810365346E+02 -0.53756111653E+02  0.35605161130E+03  0.41108973266E+03  0.17252661036E+03 0.  0.
        -24    2    3    3    0    0 -0.87419836708E+02  0.62566217679E+01  0.31708005407E+03  0.33863034037E+03  0.80307991914E+02 0.  0.
          6    2    1    2  501    0  0.97810365346E+02  0.53756111653E+02  0.24947170872E+03  0.32456155616E+03  0.17506422586E+03 0.  0.
         24    2    5    5    0    0  0.12651580151E+03  0.52492809989E+02  0.24929561647E+03  0.29544594171E+03  0.79863990308E+02 0.  0.
          5    1    5    5  501    0 -0.28705436165E+02  0.12633016639E+01  0.17609225430E+00  0.29115614453E+02  0.47000000000E+01 0. -1.
        -13    1    6    6    0    0  0.64697246408E+02  0.63104947067E+02  0.18347056434E+03  0.20452240957E+03  0.00000000000E+00 0.  1.
         14    1    6    6    0    0  0.61818555103E+02 -0.10612137078E+02  0.65825052125E+02  0.90923532133E+02  0.00000000000E+00 0. -1.
         -5    1    3    3    0  503 -0.10390528638E+02 -0.60012733421E+02  0.38971557228E+02  0.72459392288E+02  0.47000000000E+01 0.  1.
         11    1    4    4    0    0 -0.55780699284E+02  0.23773104464E+02  0.88946686779E+02  0.10764831628E+03  0.00000000000E+00 0. -1.
        -12    1    4    4    0    0 -0.31639137424E+02 -0.17516482696E+02  0.22813336729E+03  0.23098202410E+03  0.00000000000E+00 0.  1.
</event>
<event>
12    1  0.8297444E-002  0.2099377E+03  0.7818608E-02  0.1141933E+00
         21   -1    0    0  503  502  0.00000000000E+00  0.00000000000E+00  0.10959842778E+03  0.10959842778E+03  0.00000000000E+00 0. -1.
         21   -1    0    0  501  503 -0.00000000000E+00 -0.00000000000E+00 -0.48915619980E+03  0.48915619980E+03  0.00000000000E+00 0. -1.
          6    2    1    2  501    0  0.81647825714E+02 -0.84302476044E+02 -0.31883888890E+03  0.38174868562E+03  0.17407052303E+03 0.  0.
         24    2    3    3    0    0 -0.88165586877E+01 -0.22051353803E+02 -0.21426665915E+03  0.23003695799E+03  0.80267097287E+02 0.  0.
         -6    2    1    2    0  502 -0.81647825714E+02  0.84302476044E+02 -0.60718883121E+02  0.21700594196E+03  0.17213808749E+03 0.  0.
        -24    2    5    5    0    0 -0.75560345192E+02  0.11875738452E+03 -0.75701105360E+02  0.17865551666E+03  0.79840178697E+02 0.  0.
          5    1    3    3  501    0  0.90464384401E+02 -0.62251122241E+02 -0.10457222975E+03  0.15171172763E+03  0.47000000000E+01 0. -1.
        -13    1    4    4    0    0  0.19438716229E+02  0.22889417404E+02 -0.90957497738E+02  0.95786510076E+02  0.00000000000E+00 0.  1.
         14    1    4    4    0    0 -0.28255274916E+02 -0.44940771208E+02 -0.12330916141E+03  0.13425044791E+03  0.00000000000E+00 0. -1.
         -5    1    5    5    0  502 -0.60874805217E+01 -0.34454908481E+02  0.14982222239E+02  0.38350425301E+02  0.47000000000E+01 0.  1.
         11    1    6    6    0    0 -0.15969944595E+02  0.57880746011E+02  0.63506810530E+01  0.60378398778E+02  0.00000000000E+00 0. -1.
        -12    1    6    6    0    0 -0.59590400596E+02  0.60876638513E+02 -0.82051786413E+02  0.11827711788E+03  0.00000000000E+00 0.  1.
</event>
<event>
12    1  0.8297444E-002  0.1804603E+03  0.7818608E-02  0.1167420E+00
         21   -1    0    0  503  502  0.00000000000E+00  0.00000000000E+00  0.70593392425E+02  0.70593392425E+02  0.00000000000E+00 0.  1.
         21   -1    0    0  501  503 -0.00000000000E+00 -0.00000000000E+00 -0.98420715427E+03  0.98420715427E+03  0.00000000000E+00 0.  1.
          6    2    1    2  501    0 -0.48923819339E+02 -0.18727417129E+02 -0.84131222937E+03  0.86039521828E+03  0.17242217985E+03 0.  0.
         24    2    3    3    0    0 -0.79324874994E+02  0.29115668353E+02 -0.65119926927E+03  0.66195577510E+03  0.83575127584E+02 0.  0.
         -6    2    1    2    0  502  0.48923819339E+02  0.18727417129E+02 -0.72301532480E+02  0.19440532842E+03  0.17268950132E+03 0.  0.
        -24    2    5    5    0    0  0.16865207192E+02  0.11008424536E+02 -0.11477473383E+03  0.14042940515E+03  0.78368090968E+02 0.  0.
          5    1    3    3  501    0  0.30401055655E+02 -0.47843085483E+02 -0.19011296010E+03  0.19843944318E+03  0.47000000000E+01 0. -1.
        -13    1    4    4    0    0 -0.11703357606E+02 -0.26886657977E+02 -0.21662775034E+03  0.21860339241E+03  0.00000000000E+00 0.  1.
         14    1    4    4    0    0 -0.67621517388E+02  0.56002326330E+02 -0.43457151893E+03  0.44335238268E+03  0.00000000000E+00 0. -1.
         -5    1    5    5    0  502  0.32058612147E+02  0.77189925933E+01  0.42473201349E+02  0.53975923265E+02  0.47000000000E+01 0.  1.
         11    1    6    6    0    0  0.23027499430E+02 -0.30571849789E+02 -0.63309454390E+02  0.73979664400E+02  0.00000000000E+00 0. -1.
        -12    1    6    6    0    0 -0.61622922377E+01  0.41580274325E+02 -0.51465279439E+02  0.66449740755E+02  0.00000000000E+00 0.  1.
</event>
<event>
12    1  0.8297444E-002  0.1786094E+03  0.7818608E-02  0.1169435E+00
         21   -1    0    0  503  502  0.00000000000E+00  0.00000000000E+00  0.28966084507E+03  0.28966084507E+03  0.00000000000E+00 0.  1.
         21   -1    0    0  501  503 -0.00000000000E+00 -0.00000000000E+00 -0.13685404686E+03  0.13685404686E+03  0.00000000000E+00 0.  1.
          6    2    1    2  501    0 -0.31648260197E+02 -0.34814772773E+02 -0.19252680002E+02  0.17851133098E+03  0.17111969152E+03 0.  0.
         24    2    3    3    0    0 -0.57262656241E+02 -0.11313854580E+02 -0.66463701097E+02  0.11969499861E+03  0.80637795255E+02 0.  0.
         -6    2    1    2    0  502  0.31648260197E+02  0.34814772773E+02  0.17205947822E+03  0.24800356095E+03  0.17230096176E+03 0.  0.
        -24    2    5    5    0    0 -0.12219006112E+02 -0.38079806431E+02  0.10915898967E+03  0.14209549615E+03  0.81707216515E+02 0.  0.
          5    1    3    3  501    0  0.25614396045E+02 -0.23500918193E+02  0.47211021095E+02  0.58816332370E+02  0.47000000000E+01 0. -1.
        -11    1    4    4    0    0 -0.10357412990E+02 -0.40970276293E+02 -0.40100245086E+02  0.58256924046E+02  0.00000000000E+00 0.  1.
         12    1    4    4    0    0 -0.46905243252E+02  0.29656421713E+02 -0.26363456011E+02  0.61438074564E+02  0.00000000000E+00 0. -1.
         -5    1    5    5    0  502  0.43867266309E+02  0.72894579204E+02  0.62900488542E+02  0.10590806480E+03  0.47000000000E+01 0.  1.
         13    1    6    6    0    0 -0.41488121590E+02 -0.42109355894E+02  0.86915832599E+02  0.10511338660E+03  0.00000000000E+00 0. -1.
        -14    1    6    6    0    0  0.29269115478E+02  0.40295494630E+01  0.22243157075E+02  0.36982109545E+02  0.00000000000E+00 0.  1.
</event>
<event>
12    1  0.8297444E-002  0.3690076E+03  0.7818608E-02  0.1055109E+00
         21   -1    0    0  503  502  0.00000000000E+00  0.00000000000E+00  0.93282797257E+03  0.93282797257E+03  0.00000000000E+00 0. -1.
         21   -1    0    0  501  503 -0.00000000000E+00 -0.00000000000E+00 -0.13220656338E+04  0.13220656338E+04  0.00000000000E+00 0.  1.
          6    2    1    2  501    0  0.29044397976E+03 -0.14811251216E+03 -0.12580809886E+04  0.13110813808E+04  0.17283399943E+03 0.  0.
         24    2    3    3    0    0  0.23607650875E+03 -0.51119839729E+02 -0.95176542851E+03  0.98517539311E+03  0.79798297471E+02 0.  0.
         -6    2    1    2    0  502 -0.29044397976E+03  0.14811251216E+03  0.86884332737E+03  0.94381222565E+03  0.17204001899E+03 0.  0.
        -24    2    5    5    0    0 -0.27520379656E+03  0.17395819947E+03  0.75588404291E+03  0.82684149135E+03  0.79420278872E+02 0.  0.
          5    1    3    3  501    0  0.54367471006E+02 -0.96992672434E+02 -0.30631556013E+03  0.32590598765E+03  0.47000000000E+01 0. -1.
        -13    1    4    4    0    0  0.47354824697E+02 -0.43854080934E+02 -0.20644878862E+03  0.21630247840E+03  0.00000000000E+00 0.  1.
         14    1    4    4    0    0  0.18872168406E+03 -0.72657587954E+01 -0.74531663989E+03  0.76887291472E+03  0.00000000000E+00 0. -1.
         -5    1    5    5    0  502 -0.15240183203E+02 -0.25845687304E+02  0.11295928446E+03  0.11697073430E+03  0.47000000000E+01 0.  1.
         11    1    6    6    0    0 -0.10551817831E+03  0.54275766356E+02  0.18940414323E+03  0.22350363362E+03  0.00000000000E+00 0. -1.
        -12    1    6    6    0    0 -0.16968561824E+03  0.11968243311E+03  0.56647989968E+03  0.60333785773E+03  0.00000000000E+00 0.  1.
</event>
<event>
12    1  0.8297444E-002  0.2084301E+03  0.7818608E-02  0.1142886E+00
         21   -1    0    0  501  502  0.00000000000E+00  0.00000000000E+00  0.22927289198E+03  0.22927289198E+03  0.00000000000E+00 0. -1.
         21   -1    0    0  502  503 -0.00000000000E+00 -0.00000000000E+00 -0.21764963799E+03  0.21764963799E+03  0.00000000000E+00 0. -1.
         -6    2    1    2    0  503  0.10587658029E+03 -0.47619457847E+02 -0.75029369733E+02  0.22152317832E+03  0.17310589011E+03 0.  0.
        -24    2    3    3    0    0  0.44279430174E+02 -0.66059940807E+02 -0.10147271082E+03  0.15184103856E+03  0.80214750714E+02 0.  0.
          6    2    1    2  501    0 -0.10587658029E+03  0.47619457847E+02  0.86652623723E+02  0.22539935165E+03  0.17268099926E+03 0.  0.
         24    2    5    5    0    0 -0.74237321694E+02  0.32992253356E+01 -0.15533849188E+02  0.10951367117E+03  0.78929581790E+02 0.  0.
          5    1    5    5  501    0 -0.31639258592E+02  0.44320232512E+02  0.10218647291E+03  0.11588568048E+03  0.47000000000E+01 0. -1.
        -13    1    6    6    0    0 -0.81601964784E+02 -0.19823303045E+02 -0.14551932983E+02  0.85226772517E+02  0.00000000000E+00 0.  1.
         14    1    6    6    0    0  0.73646430899E+01  0.23122528380E+02 -0.98191620452E+00  0.24286898649E+02  0.00000000000E+00 0. -1.
         -5    1    3    3    0  503  0.61597150111E+02  0.18440482960E+02  0.26443341090E+02  0.69682139761E+02  0.47000000000E+01 0.  1.
         13    1    4    4    0    0  0.64559305825E+02 -0.33127728675E+02 -0.53145133432E+02  0.89943068567E+02  0.00000000000E+00 0. -1.
        -14    1    4    4    0    0 -0.20279875651E+02 -0.32932212132E+02 -0.48327577391E+02  0.61897969990E+02  0.00000000000E+00 0.  1.
</event>
<event>
12    1  0.8297444E-002  0.2482577E+03  0.7818608E-02  0.1114662E+00
         21   -1    0    0  503  502  0.00000000000E+00  0.00000000000E+00  0.71661791273E+03  0.71661791273E+03  0.00000000000E+00 0.  1.
         21   -1    0    0  501  503 -0.00000000000E+00 -0.00000000000E+00 -0.10491578769E+03  0.10491578769E+03  0.00000000000E+00 0.  1.
          6    2    1    2  501    0 -0.70204894922E+02  0.16250231991E+03  0.12817494328E+03  0.27799859333E+03  0.17180998388E+03 0.  0.
         24    2    3    3    0    0 -0.57076482696E+02  0.14152455197E+03  0.16158992360E+03  0.23615277077E+03  0.79811678643E+02 0.  0.
         -6    2    1    2    0  502  0.70204894922E+02 -0.16250231991E+03  0.48352718177E+03  0.54353510709E+03  0.17405788085E+03 0.  0.
        -24    2    5    5    0    0 -0.31809073368E+02 -0.84888693135E+02  0.24553014314E+03  0.27317348781E+03  0.78235515455E+02 0.  0.
          5    1    3    3  501    0 -0.13128412226E+02  0.20977767942E+02 -0.33414980323E+02  0.41845822556E+02  0.47000000000E+01 0. -1.
        -11    1    4    4    0    0 -0.91421399405E+01  0.84971745059E+02  0.41456657860E+02  0.94986476206E+02  0.00000000000E+00 0.  1.
         12    1    4    4    0    0 -0.47934342756E+02  0.56552806913E+02  0.12013326574E+03  0.14116629457E+03  0.00000000000E+00 0. -1.
         -5    1    5    5    0  502  0.10201396829E+03 -0.77613626779E+02  0.23799703863E+03  0.27036161929E+03  0.47000000000E+01 0.  1.
         11    1    6    6    0    0 -0.12659430331E+02 -0.22836365768E+02  0.85778408663E+01  0.27483451961E+02  0.00000000000E+00 0. -1.
        -12    1    6    6    0    0 -0.19149643037E+02 -0.62052327367E+02  0.23695230227E+03  0.24569003584E+03  0.00000000000E+00 0.  1.
</event>
<event>
12    1  0.8297444E-002  0.2341077E+03  0.7818608E-02  0.1123831E+00
         21   -1    0    0  501  502  0.00000000000E+00  0.00000000000E+00  0.29072329392E+03  0.29072329392E+03  0.00000000000E+00 0. -1.
         21   -1    0    0  502  503 -0.00000000000E+00 -0.00000000000E+00 -0.19434871507E+03  0.19434871507E+03  0.00000000000E+00 0.  1.
         -6    2    1    2    0  503 -0.14305320702E+03  0.68393663229E+02  0.53152133791E+01  0.23387837529E+03  0.17183983743E+03 0.  0.
        -24    2    3    3    0    0 -0.11849386263E+03  0.29763567038E+02  0.62708907938E+02  0.16031498831E+03  0.82715312605E+02 0.  0.
          6    2    1    2  501    0  0.14305320702E+03 -0.68393663229E+02  0.91059365470E+02  0.25119363370E+03  0.17223391177E+03 0.  0.
         24    2    5    5    0    0  0.12751002606E+03  0.86120592362E+01  0.34808873041E+02  0.15445853322E+03  0.79453171946E+02 0.  0.
          5    1    5    5  501    0  0.15543180961E+02 -0.77005722465E+02  0.56250492429E+02  0.96735100482E+02  0.47000000000E+01 0. -1.
        -13    1    6    6    0    0  0.93049640456E+02 -0.12592922115E+02 -0.95923402884E+01  0.94386600048E+02  0.00000000000E+00 0.  1.
         14    1    6    6    0    0  0.34460385605E+02  0.21204981352E+02  0.44401213329E+02  0.60071933174E+02  0.00000000000E+00 0. -1.
         -5    1    3    3    0  503 -0.24559344394E+02  0.38630096191E+02 -0.57393694558E+02  0.73563386979E+02  0.47000000000E+01 0.  1.
         11    1    4    4    0    0  0.53624163105E+01  0.16887949209E+02 -0.52153665306E+01  0.18470473335E+02  0.00000000000E+00 0. -1.
        -12    1    4    4    0    0 -0.12385627894E+03  0.12875617828E+02  0.67924274468E+02  0.14184451498E+03  0.00000000000E+00 0.  1.
</event>
<event>
12    1  0.8297444E-002  0.1865667E+03  0.7818608E-02  0.1161888E+00
         21   -1    0    0  501  502  0.00000000000E+00  0.00000000000E+00  0.19911641507E+03  0.19911641507E+03  0.00000000000E+00 0.  1.
         21   -1    0    0  502  503 -0.00000000000E+00 -0.00000000000E+00 -0.20165975272E+03  0.20165975272E+03  0.00000000000E+00 0. -1.
         -6    2    1    2    0  503  0.38546826460E+02 -0.60081799541E+02  0.73446476107E+02  0.19932746690E+03  0.17100109281E+03 0.  0.
        -24    2    3    3    0    0 -0.33185087741E+02 -0.35983114980E+02 -0.25250793295E+01  0.91996290868E+02  0.77851826541E+02 0.  0.
          6    2    1    2  501    0 -0.38546826460E+02  0.60081799541E+02 -0.75989813756E+02  0.20144870089E+03  0.17237008682E+03 0.  0.
         24    2    5    5    0    0 -0.58824776503E+02  0.10438103909E+02  0.97056538590E+01  0.10024842943E+03  0.79913950866E+02 0.  0.
          5    1    5    5  501    0  0.20277950043E+02  0.49643695632E+02 -0.85695467615E+02  0.10120027146E+03  0.47000000000E+01 0. -1.
        -13    1    6    6    0    0 -0.11744279084E+02  0.21159250300E+02  0.37428184685E+02  0.44570292497E+02  0.00000000000E+00 0.  1.
         14    1    6    6    0    0 -0.47080497419E+02 -0.10721146391E+02 -0.27722530826E+02  0.55678136935E+02  0.00000000000E+00 0. -1.
         -5    1    3    3    0  503  0.71731914201E+02 -0.24098684561E+02  0.75971555437E+02  0.10733117603E+03  0.47000000000E+01 0.  1.
         13    1    4    4    0    0 -0.48548944512E+02 -0.65723204582E+01  0.18886120117E+02  0.52506008632E+02  0.00000000000E+00 0. -1.
        -14    1    4    4    0    0  0.15363856771E+02 -0.29410794522E+02 -0.21411199447E+02  0.39490282235E+02  0.00000000000E+00 0.  1.
</event>
<event>
12    1  0.8297444E-002  0.3905232E+03  0.7818608E-02  0.1047163E+00
         21   -1    0    0  503  502  0.00000000000E+00  0.00000000000E+00  0.21391832658E+03  0.21391832658E+03  0.00000000000E+00 0. -1.
         21   -1    0    0  501  503 -0.00000000000E+00 -0.00000000000E+00 -0.78514365243E+03  0.78514365243E+03  0.00000000000E+00 0.  1.
          6    2    1    2  501    0  0.91967449739E+02 -0.33773998791E+03 -0.43839794766E+03  0.58711254237E+03  0.17315330102E+03 0.  0.
         24    2    3    3    0    0  0.57269161555E+02 -0.16878624923E+03 -0.32953440900E+03  0.38309612865E+03  0.80007263931E+02 0.  0.
         -6    2    1    2    0  502 -0.91967449739E+02  0.33773998791E+03 -0.13282737819E+03  0.41194943664E+03  0.17185143208E+03 0.  0.
        -24    2    5    5    0    0 -0.62818224471E+02  0.89271349332E+02 -0.17552940850E+02  0.13645601096E+03  0.79978960092E+02 0.  0.
          5    1    3    3  501    0  0.34698288184E+02 -0.16895373868E+03 -0.10886353866E+03  0.20401641372E+03  0.47000000000E+01 0. -1.
        -13    1    4    4    0    0  0.74580057298E+02 -0.10553942269E+03 -0.20452056137E+03  0.24192853224E+03  0.00000000000E+00 0.  1.
         14    1    4    4    0    0 -0.17310895743E+02 -0.63246826540E+02 -0.12501384763E+03  0.14116759641E+03  0.00000000000E+00 0. -1.
         -5    1    5    5    0  502 -0.29149225268E+02  0.24846863857E+03 -0.11527443734E+03  0.27549342568E+03  0.47000000000E+01 0.  1.
         13    1    6    6    0    0 -0.10768802762E+02  0.75834191431E+02  0.78573189316E+01  0.76996942561E+02  0.00000000000E+00 0. -1.
        -14    1    6    6    0    0 -0.52049421710E+02  0.13437157901E+02 -0.25410259782E+02  0.59459068400E+02  0.00000000000E+00 0.  1.
</event>
<event>
12    1  0.8297444E-002  0.1868369E+03  0.7818608E-02  0.1162313E+00
         21   -1    0    0  503  502  0.00000000000E+00  0.00000000000E+00  0.44231202527E+03  0.44231202527E+03  0.00000000000E+00 0.  1.
         21   -1    0    0  501  503 -0.00000000000E+00 -0.00000000000E+00 -0.10387082961E+03  0.10387082961E+03  0.00000000000E+00 0.  1.
          6    2    1    2  501    0  0.30093547141E+02 -0.69045322000E+02  0.29378140563E+02  0.18503469697E+03  0.16643883522E+03 0.  0.
         24    2    3    3    0    0  0.30022303123E+02 -0.86935479183E+02  0.69514984869E+02  0.14084059023E+03  0.80898841208E+02 0.  0.
         -6    2    1    2    0  502 -0.30093547141E+02  0.69045322000E+02  0.30906305511E+03  0.36114815791E+03  0.17098287009E+03 0.  0.
        -24    2    5    5    0    0  0.41461636922E+02  0.63567295633E+02  0.23407440609E+03  0.25724656687E+03  0.75000667810E+02 0.  0.
          5    1    3    3  501    0  0.71244018564E-01  0.17890157183E+02 -0.40136844306E+02  0.44194106740E+02  0.47000000000E+01 0. -1.
        -13    1    4    4    0    0 -0.42389696989E+01  0.84679622961E+01 -0.86573062155E+01  0.12830596263E+02  0.00000000000E+00 0.  1.
         14    1    4    4    0    0  0.34261272822E+02 -0.95403441479E+02  0.78172291085E+02  0.12800999396E+03  0.00000000000E+00 0. -1.
         -5    1    5    5    0  502 -0.71555184064E+02  0.54780263671E+01  0.74988649020E+02  0.10390159104E+03  0.47000000000E+01 0.  1.
         11    1    6    6    0    0  0.20714463477E+02 -0.78610174953E+01  0.17432971639E+02  0.28192075010E+02  0.00000000000E+00 0. -1.
        -12    1    6    6    0    0  0.20747173445E+02  0.71428313128E+02  0.21664143445E+03  0.22905449186E+03  0.00000000000E+00 0.  1.
</event>
<event>
12    1  0.8297444E-002  0.2389557E+03  0.7818608E-02  0.1120721E+00
         21   -1    0    0  503  502  0.00000000000E+00  0.00000000000E+00  0.25309840207E+03  0.25309840207E+03  0.00000000000E+00 0. -1.
         21   -1    0    0  501  503 -0.00000000000E+00 -0.00000000000E+00 -0.30563059048E+03  0.30563059048E+03  0.00000000000E+00 0. -1.
          6    2    1    2  501    0 -0.12271471661E+03  0.11000964202E+03 -0.17031537984E+03  0.29232199585E+03  0.17112509355E+03 0.  0.
         24    2    3    3    0    0 -0.76282392511E+02  0.13723623398E+03 -0.98409312781E+02  0.20237856635E+03  0.81362792177E+02 0.  0.
         -6    2    1    2    0  502  0.12271471661E+03 -0.11000964202E+03  0.11778319142E+03  0.26640699669E+03  0.17302827715E+03 0.  0.
        -24    2    5    5    0    0  0.11258028497E+03 -0.35422103956E+02  0.42604982932E+02  0.15991821526E+03  0.99144364375E+02 0.  0.
          5    1    3    3  501    0 -0.46432324099E+02 -0.27226591966E+02 -0.71906067056E+02  0.89943429503E+02  0.47000000000E+01 0. -1.
        -11    1    4    4    0    0 -0.57737240220E+02  0.55095118063E+02 -0.10246459748E+02  0.80461486936E+02  0.00000000000E+00 0.  1.
         12    1    4    4    0    0 -0.18545152292E+02  0.82141115921E+02 -0.88162853032E+02  0.12191707942E+03  0.00000000000E+00 0. -1.
         -5    1    5    5    0  502  0.10134431636E+02 -0.74587538062E+02  0.75178208492E+02  0.10648878143E+03  0.47000000000E+01 0.  1.
         13    1    6    6    0    0 -0.97670387316E+01 -0.22724762353E+02  0.25850601145E+02  0.35777974358E+02  0.00000000000E+00 0. -1.
        -14    1    6    6    0    0  0.12234732371E+03 -0.12697341603E+02  0.16754381786E+02  0.12414024090E+03  0.00000000000E+00 0.  1.
</event>
<event>
12    1  0.8297444E-002  0.2116421E+03  0.7818608E-02  0.1144239E+00
         21   -1    0    0  503  502  0.00000000000E+00  0.00000000000E+00  0.14798300050E+04  0.14798300050E+04  0.00000000000E+00 0.  1.
         21   -1    0    0  501  503 -0.00000000000E+00 -0.00000000000E+00 -0.52092391692E+02  0.52092391692E+02  0.00000000000E+00 0.  1.
          6    2    1    2  501    0 -0.65156518004E+02 -0.66401421251E+02  0.20674949465E+03  0.29586773822E+03  0.19009956442E+03 0.  0.
         24    2    3    3    0    0 -0.47391303972E+02 -0.22841078843E+01  0.22162112279E+02  0.99599492095E+02  0.84721583814E+02 0.  0.
         -6    2    1    2    0  502  0.65156518004E+02  0.66401421251E+02  0.12209881186E+04  0.12360546584E+04  0.16841796894E+03 0.  0.
        -24    2    5    5    0    0  0.57098802914E+02  0.57936989888E+02  0.39487084391E+03  0.40984135975E+03  0.73688457005E+02 0.  0.
          5    1    3    3  501    0 -0.17765214033E+02 -0.64117313367E+02  0.18458738238E+03  0.19626824612E+03  0.47000000000E+01 0. -1.
        -13    1    4    4    0    0  0.10910563929E+02 -0.21951723361E+02  0.28676069405E+02  0.37725793832E+02  0.00000000000E+00 0.  1.
         14    1    4    4    0    0 -0.58301867901E+02  0.19667615477E+02 -0.65139571256E+01  0.61873698263E+02  0.00000000000E+00 0. -1.
         -5    1    5    5    0  502  0.80577150909E+01  0.84644313627E+01  0.82611727471E+03  0.82621329869E+03  0.47000000000E+01 0.  1.
         11    1    6    6    0    0  0.72390050193E+02  0.46359639459E+02  0.35918103519E+03  0.36932445299E+03  0.00000000000E+00 0. -1.
        -12    1    6    6    0    0 -0.15291247280E+02  0.11577350430E+02  0.35689808721E+02  0.40516906754E+02  0.00000000000E+00 0.  1.
</event>
<event>
12    1  0.8297444E-002  0.2095309E+03  0.7818608E-02  0.1142241E+00
         21   -1    0    0  501  502  0.00000000000E+00  0.00000000000E+00  0.46535828770E+03  0.46535828770E+03  0.00000000000E+00 0.  1.
         21   -1    0    0  502  503 -0.00000000000E+00 -0.00000000000E+00 -0.22173919401E+03  0.22173919401E+03  0.00000000000E+00 0.  1.
         -6    2    1    2    0  503  0.68836757600E+02 -0.98347050010E+02 -0.13947728489E+03  0.25044424470E+03  0.16987573476E+03 0.  0.
        -24    2    3    3    0    0  0.11224033106E+03 -0.63818950100E+02 -0.10733718160E+03  0.18617033000E+03  0.80419965861E+02 0.  0.
          6    2    1    2  501    0 -0.68836757600E+02  0.98347050010E+02  0.38309637857E+03  0.43665323701E+03  0.17173401724E+03 0.  0.
         24    2    5    5    0    0 -0.73576141351E+02  0.37748389121E+01  0.25894069964E+03  0.28043836102E+03  0.78534644692E+02 0.  0.
          5    1    5    5  501    0  0.47393837514E+01  0.94572211098E+02  0.12415567893E+03  0.15621487599E+03  0.47000000000E+01 0. -1.
        -11    1    6    6    0    0 -0.52601723548E+02  0.34242291440E+02  0.10691041931E+03  0.12397303578E+03  0.00000000000E+00 0.  1.
         12    1    6    6    0    0 -0.20974417803E+02 -0.30467452528E+02  0.15203028033E+03  0.15646532524E+03  0.00000000000E+00 0. -1.
         -5    1    3    3    0  503 -0.43403573456E+02 -0.34528099910E+02 -0.32140103284E+02  0.64273914702E+02  0.47000000000E+01 0.  1.
         11    1    4    4    0    0  0.59979419381E+01 -0.33988540721E+02 -0.35757601847E+01  0.34698447642E+02  0.00000000000E+00 0. -1.
        -12    1    4    4    0    0  0.10624238912E+03 -0.29830409379E+02 -0.10376142142E+03  0.15147188235E+03  0.00000000000E+00 0.  1.
</event>
<event>
12    1  0.8297444E-002  0.2119235E+03  0.7818608E-02  0.1140168E+00
         21   -1    0    0  503  502  0.00000000000E+00  0.00000000000E+00  0.12233910096E+03  0.12233910096E+03  0.00000000000E+00 0. -1.
         21   -1    0    0  501  503 -0.00000000000E+00 -0.00000000000E+00 -0.38354343367E+03  0.38354343367E+03  0.00000000000E+00 0. -1.
          6    2    1    2  501    0 -0.55215459472E+02  0.11087324713E+03 -0.18474907739E+03  0.28114729169E+03  0.17195916415E+03 0.  0.
         24    2    3    3    0    0 -0.50514983695E+02  0.51624982759E+02 -0.19225128632E+03  0.22105715571E+03  0.81785124409E+02 0.  0.
         -6    2    1    2    0  502  0.55215459472E+02 -0.11087324713E+03 -0.76455255318E+02  0.22473524294E+03  0.17122762469E+03 0.  0.
        -24    2    5    5    0    0  0.99726654646E+02 -0.10553740938E+03 -0.70456430027E+02  0.17926224474E+03  0.78021108877E+02 0.  0.
          5    1    3    3  501    0 -0.47004757776E+01  0.59248264375E+02  0.75022089336E+01  0.60090135987E+02  0.47000000000E+01 0. -1.
        -11    1    4    4    0    0 -0.46704511379E+02  0.78855011203E+00 -0.43562806533E+02  0.63872148136E+02  0.00000000000E+00 0.  1.
         12    1    4    4    0    0 -0.38104723159E+01  0.50836432647E+02 -0.14868847979E+03  0.15718500757E+03  0.00000000000E+00 0. -1.
         -5    1    5    5    0  502 -0.44511195173E+02 -0.53358377508E+01 -0.59988252908E+01  0.45472998198E+02  0.47000000000E+01 0.  1.
         11    1    6    6    0    0  0.79911397841E+02 -0.51503405813E+02 -0.75620975943E+02  0.12147824627E+03  0.00000000000E+00 0. -1.
        -12    1    6    6    0    0  0.19815256805E+02 -0.54034003570E+02  0.51645459157E+01  0.57783998465E+02  0.00000000000E+00 0.  1.
</event>
<event>
12    1  0.8297444E-002  0.2587126E+03  0.7818608E-02  0.1108103E+00
         21   -1    0    0  503  502  0.00000000000E+00  0.00000000000E+00  0.11738049511E+03  0.11738049511E+03  0.00000000000E+00 0.  1.
         21   -1    0    0  501  503 -0.00000000000E+00 -0.00000000000E+00 -0.62597178892E+03  0.62597178892E+03  0.00000000000E+00 0.  1.
          6    2    1    2  501    0  0.15272980907E+03  0.11748156045E+03 -0.14129137552E+03  0.29478033048E+03  0.17263799934E+03 0.  0.
         24    2    3    3    0    0  0.12735899572E+03  0.24644645029E+02 -0.12516695473E+03  0.19708458861E+03  0.79673685671E+02 0.  0.
         -6    2    1    2    0  502 -0.15272980907E+03 -0.11748156045E+03 -0.36729991829E+03  0.44857195354E+03  0.17081936631E+03 0.  0.
        -24    2    5    5    0    0 -0.43816979122E+02 -0.87488946521E+02 -0.11137007967E+03  0.16877964894E+03  0.80678571068E+02 0.  0.
          5    1    3    3  501    0  0.25370813346E+02  0.92836915418E+02 -0.16124420788E+02  0.97695741873E+02  0.47000000000E+01 0. -1.
        -11    1    4    4    0    0  0.12021505360E+03  0.38187990876E+02 -0.12989431058E+03  0.18105942031E+03  0.00000000000E+00 0.  1.
         12    1    4    4    0    0  0.71439421219E+01 -0.13543345847E+02  0.47273558480E+01  0.16025168301E+02  0.00000000000E+00 0. -1.
         -5    1    5    5    0  502 -0.10891282995E+03 -0.29992613927E+02 -0.25592983862E+03  0.27979230460E+03  0.47000000000E+01 0.  1.
         13    1    6    6    0    0 -0.51284046125E+02 -0.99690701412E+02 -0.94195149223E+02  0.14642750927E+03  0.00000000000E+00 0. -1.
        -14    1    6    6    0    0  0.74670670029E+01  0.12201754891E+02 -0.17174930444E+02  0.22352139670E+02  0.00000000000E+00 0.  1.
</event>
<event>
12    1  0.8297444E-002  0.2606490E+03  0.7818608E-02  0.1107029E+00
         21   -1    0    0  501  502  0.00000000000E+00  0.00000000000E+00  0.62586417770E+03  0.62586417770E+03  0.00000000000E+00 0.  1.
         21   -1    0    0  502  503 -0.00000000000E+00 -0.00000000000E+00 -0.14218743157E+03  0.14218743157E+03  0.00000000000E+00 0. -1.
         -6    2    1    2    0  503 -0.32907738582E+02  0.19293882968E+03  0.43136848140E+03  0.50400063714E+03  0.17213240323E+03 0.  0.
        -24    2    3    3    0    0 -0.46580405229E+02  0.12184045699E+03  0.39294507702E+03  0.42190089040E+03  0.81115329322E+02 0.  0.
          6    2    1    2  501    0  0.32907738582E+02 -0.19293882968E+03  0.52308264736E+02  0.26405097212E+03  0.16934712889E+03 0.  0.
         24    2    5    5    0    0  0.10997802104E+02 -0.27483860782E+02 -0.10859161620E+02  0.85535970511E+02  0.79512053209E+02 0.  0.
          5    1    5    5  501    0  0.21909936478E+02 -0.16545496889E+03  0.63167426355E+02  0.17851500161E+03  0.47000000000E+01 0. -1.
        -13    1    6    6    0    0  0.14837927514E+02  0.61538546839E+00  0.31346769198E+02  0.34686636206E+02  0.00000000000E+00 0.  1.
         14    1    6    6    0    0 -0.38401254102E+01 -0.28099246251E+02 -0.42205930817E+02  0.50849334304E+02  0.00000000000E+00 0. -1.
         -5    1    3    3    0  503  0.13672666647E+02  0.71098372685E+02  0.38423404375E+02  0.82099746745E+02  0.47000000000E+01 0.  1.
         13    1    4    4    0    0  0.10213107968E+02  0.15924083415E+02  0.11893194653E+02  0.22345739773E+02  0.00000000000E+00 0. -1.
        -14    1    4    4    0    0 -0.56793513197E+02  0.10591637358E+03  0.38105188237E+03  0.39955515063E+03  0.00000000000E+00 0.  1.
</event>
<event>
12    1  0.8297444E-002  0.2018462E+03  0.7818608E-02  0.1148642E+00
         21   -1    0    0  503  502  0.00000000000E+00  0.00000000000E+00  0.47563996732E+03  0.47563996732E+03  0.00000000000E+00 0.  1.
         21   -1    0    0  501  503 -0.00000000000E+00 -0.00000000000E+00 -0.95762872079E+02  0.95762872079E+02  0.00000000000E+00 0. -1.
          6    2    1    2  501    0 -0.12892113779E+02  0.10105029982E+03  0.28594294290E+03  0.34876969029E+03  0.17175436118E+03 0.  0.
         24    2    3    3    0    0 -0.71845551525E+02  0.48315989366E+02  0.20123035426E+03  0.23277517320E+03  0.78704559475E+02 0.  0.
         -6    2    1    2    0  502  0.12892113779E+02 -0.10105029982E+03  0.93934152339E+02  0.22263314910E+03  0.17425419481E+03 0.  0.
        -24    2    5    5    0    0  0.55821779987E+02 -0.95087412963E+02  0.11120016094E+03  0.17574266698E+03  0.79764164751E+02 0.  0.
          5    1    3    3  501    0  0.58953437746E+02  0.52734310458E+02  0.84712588641E+02  0.11599451709E+03  0.47000000000E+01 0. -1.
        -13    1    4    4    0    0 -0.18879138824E+02  0.45443326931E+02  0.41188168727E+02  0.64171513060E+02  0.00000000000E+00 0.  1.
         14    1    4    4    0    0 -0.52966412701E+02  0.28726624350E+01  0.16004218553E+03  0.16860366014E+03  0.00000000000E+00 0. -1.
         -5    1    5    5    0  502 -0.42929666209E+02 -0.59628868614E+01 -0.17266008602E+02  0.46890482121E+02  0.47000000000E+01 0.  1.
         11    1    6    6    0    0  0.25917945793E+02 -0.90597548211E+02  0.11086530938E+03  0.14550179545E+03  0.00000000000E+00 0. -1.
        -12    1    6    6    0    0  0.29903834194E+02 -0.44898647521E+01  0.33485155920E+00  0.30240871525E+02  0.00000000000E+00 0.  1.
</event>
<event>
12    1  0.8297444E-002  0.2100593E+03  0.7818608E-02  0.1141752E+00
         21   -1    0    0  503  502  0.00000000000E+00  0.00000000000E+00  0.24588057187E+03  0.24588057187E+03  0.00000000000E+00 0.  1.
         21   -1    0    0  501  503 -0.00000000000E+00 -0.00000000000E+00 -0.18806607178E+03  0.18806607178E+03  0.00000000000E+00 0. -1.
          6    2    1    2  501    0  0.11704304297E+03  0.20905229720E+02 -0.20061726569E+02  0.21101507953E+03  0.17317271257E+03 0.  0.
         24    2    3    3    0    0  0.14401909577E+03 -0.77636538751E+01  0.35390405721E+01  0.16487725859E+03  0.79813603632E+02 0.  0.
         -6    2    1    2    0  502 -0.11704304297E+03 -0.20905229720E+02  0.77876226664E+02  0.22293156413E+03  0.17174886628E+03 0.  0.
        -24    2    5    5    0    0 -0.48848230236E+02 -0.50196810157E+01 -0.12470115148E+02  0.10853123799E+03  0.95980097171E+02 0.  0.
          5    1    3    3  501    0 -0.26976052798E+02  0.28668883595E+02 -0.23600767141E+02  0.46137820937E+02  0.47000000000E+01 0. -1.
        -13    1    4    4    0    0  0.69714589324E+01 -0.25272041928E+02 -0.39552191986E+01  0.26512659274E+02  0.00000000000E+00 0.  1.
         14    1    4    4    0    0  0.13704763683E+03  0.17508388053E+02  0.74942597707E+01  0.13836459931E+03  0.00000000000E+00 0. -1.
         -5    1    5    5    0  502 -0.68194812733E+02 -0.15885548704E+02  0.90346341812E+02  0.11440032614E+03  0.47000000000E+01 0.  1.
         11    1    6    6    0    0  0.13960254844E+02 -0.33340711999E+02  0.72519141091E+01  0.36865730023E+02  0.00000000000E+00 0. -1.
        -12    1    6    6    0    0 -0.62808485080E+02  0.28321030983E+02 -0.19722029257E+02  0.71665507966E+02  0.00000000000E+00 0.  1.
</event>
<event>
12    1  0.8297444E-002  0.2652449E+03  0.7818608E-02  0.1104299E+00
         21   -1    0    0  503  502  0.00000000000E+00  0.00000000000E+00  0.17440352769E+03  0.17440352769E+03  0.00000000000E+00 0.  1.
         21   -1    0    0  501  503 -0.00000000000E+00 -0.00000000000E+00 -0.70962494349E+03  0.70962494349E+03  0.00000000000E+00 0. -1.
          6    2    1    2  501    0 -0.12017942909E+03  0.16012743002E+03 -0.55979742569E+03  0.61945785042E+03  0.17398557877E+03 0.  0.
         24    2    3    3    0    0 -0.14104326903E+03  0.78538036397E+02 -0.36868912133E+03  0.41056409043E+03  0.81054162542E+02 0.  0.
         -6    2    1    2    0  502  0.12017942909E+03 -0.16012743002E+03  0.24576009885E+02  0.26457062076E+03  0.17120088811E+03 0.  0.
        -24    2    5    5    0    0  0.29905752198E+02 -0.13769806304E+03 -0.15876177050E+02  0.16302810420E+03  0.80442520985E+02 0.  0.
          5    1    3    3  501    0  0.20863839937E+02  0.81589393621E+02 -0.19110830436E+03  0.20889375999E+03  0.47000000000E+01 0. -1.
        -11    1    4    4    0    0 -0.13381173285E+03  0.49587468015E+02 -0.24691135428E+03  0.28518364908E+03  0.00000000000E+00 0.  1.
         12    1    4    4    0    0 -0.72315361801E+01  0.28950568382E+02 -0.12177776704E+03  0.12538044134E+03  0.00000000000E+00 0. -1.
         -5    1    5    5    0  502  0.90273676891E+02 -0.22429366982E+02  0.40452186935E+02  0.10154251657E+03  0.47000000000E+01 0.  1.
         11    1    6    6    0    0 -0.17892779672E+02 -0.64246312035E+02 -0.31920234438E+02  0.73936740130E+02  0.00000000000E+00 0. -1.
        -12    1    6    6    0    0  0.47798531870E+02 -0.73451751000E+02  0.16044057388E+02  0.89091364068E+02  0.00000000000E+00 0.  1.
</event>
<event>
12    1  0.8297444E-002  0.2119428E+03  0.7818608E-02  0.1140462E+00
         21   -1    0    0  503  502  0.00000000000E+00  0.00000000000E+00  0.91788685376E+03  0.91788685376E+03  0.00000000000E+00 0.  1.
         21   -1    0    0  501  503 -0.00000000000E+00 -0.00000000000E+00 -0.50166196738E+02  0.50166196738E+02  0.00000000000E+00 0.  1.
          6    2    1    2  501    0 -0.84114561504E+02  0.89677194999E+02  0.52578484266E+03  0.56689457908E+03  0.17263401826E+03 0.  0.
         24    2    3    3    0    0 -0.14162848476E+02 -0.74491153658E+01  0.14723229725E+03  0.16984183453E+03  0.83143393038E+02 0.  0.
         -6    2    1    2    0  502  0.84114561504E+02 -0.89677194999E+02  0.34193581437E+03  0.40115847142E+03  0.16997281926E+03 0.  0.
        -24    2    5    5    0    0  0.23226493805E+02 -0.11265303425E+03  0.26739957831E+03  0.30209795223E+03  0.80811274713E+02 0.  0.
          5    1    3    3  501    0 -0.69951713028E+02  0.97126310365E+02  0.37855254541E+03  0.39705274455E+03  0.47000000000E+01 0. -1.
        -13    1    4    4    0    0 -0.47336240817E+02 -0.71603840038E+01  0.61658296800E+02  0.78062387601E+02  0.00000000000E+00 0.  1.
         14    1    4    4    0    0  0.33173392341E+02 -0.28873136199E+00  0.85574000453E+02  0.91779446930E+02  0.00000000000E+00 0. -1.
         -5    1    5    5    0  502  0.60888067699E+02  0.22975839250E+02  0.74536236060E+02  0.99060519196E+02  0.47000000000E+01 0.  1.
         11    1    6    6    0    0  0.11054597379E+01  0.99638190516E+01  0.41473546948E+01  0.10848976094E+02  0.00000000000E+00 0. -1.
        -12    1    6    6    0    0  0.22121034067E+02 -0.12261685330E+03  0.26325222361E+03  0.29124897613E+03  0.00000000000E+00 0.  1.
</event>
<event>
12    1  0.8297444E-002  0.1870493E+03  0.7818608E-02  0.1161603E+00
         21   -1    0    0  503  502  0.00000000000E+00  0.00000000000E+00  0.38316686189E+03  0.38316686189E+03  0.00000000000E+00 0. -1.
         21   -1    0    0  501  503 -0.00000000000E+00 -0.00000000000E+00 -0.12290813481E+03  0.12290813481E+03  0.00000000000E+00 0. -1.
          6    2    1    2  501    0 -0.12587943305E+02 -0.68504728746E+02 -0.59186852604E+00  0.18509140730E+03  0.17148505640E+03 0.  0.
         24    2    3    3    0    0 -0.57855877580E+02 -0.59140489144E+02 -0.42930116353E+02  0.12223051257E+03  0.79072139762E+02 0.  0.
         -6    2    1    2    0  502  0.12587943305E+02  0.68504728746E+02  0.26085059560E+03  0.32098358941E+03  0.17359745754E+03 0.  0.
        -24    2    5    5    0    0 -0.50526889813E+02  0.25639041863E+02  0.86562034299E+02  0.13066926553E+03  0.79819446939E+02 0.  0.
          5    1    3    3  501    0  0.45267934276E+02 -0.93642396026E+01  0.42338247827E+02  0.62860894728E+02  0.47000000000E+01 0. -1.
        -13    1    4    4    0    0 -0.46784193990E+02 -0.42055133855E+02  0.11649505150E+02  0.63977387107E+02  0.00000000000E+00 0.  1.
         14    1    4    4    0    0 -0.11071683590E+02 -0.17085355288E+02 -0.54579621503E+02  0.58253125463E+02  0.00000000000E+00 0. -1.
         -5    1    5    5    0  502  0.63114833118E+02  0.42865686884E+02  0.17428856130E+03  0.19031432388E+03  0.47000000000E+01 0.  1.
         13    1    6    6    0    0 -0.27386111506E+02  0.15611743339E+02  0.98023146489E+02  0.10296729035E+03  0.00000000000E+00 0. -1.
        -14    1    6    6    0    0 -0.23140778307E+02  0.10027298524E+02 -0.11461112190E+02  0.27701975182E+02  0.00000000000E+00 0.  1.
</event>
<event>
12    1  0.8297444E-002  0.2023727E+03  0.7818608E-02  0.1147977E+00
         21   -1    0    0  501  502  0.00000000000E+00  0.00000000000E+00  0.26034590954E+03  0.26034590954E+03  0.00000000000E+00 0.  1.
         21   -1    0    0  502  503 -0.00000000000E+00 -0.00000000000E+00 -0.16653966811E+03  0.16653966811E+03  0.00000000000E+00 0.  1.
         -6    2    1    2    0  503  0.59226914108E+02 -0.87048431808E+02 -0.54612451922E+01  0.20244633909E+03  0.17282777027E+03 0.  0.
        -24    2    3    3    0    0  0.86188025914E+02 -0.52493101404E+02  0.44309871101E+02  0.13596155567E+03  0.79613305658E+02 0.  0.
          6    2    1    2  501    0 -0.59226914108E+02  0.87048431808E+02  0.99267486620E+02  0.22443923856E+03  0.17156246988E+03 0.  0.
         24    2    5    5    0    0 -0.15954682202E+02 -0.18489989478E+02  0.23476958536E+02  0.87409538972E+02  0.80578088375E+02 0.  0.
          5    1    5    5  501    0 -0.43272231906E+02  0.10553842129E+03  0.75790528083E+02  0.13702969959E+03  0.47000000000E+01 0. -1.
        -13    1    6    6    0    0 -0.27137575378E+02  0.20511211009E+02 -0.92842233606E+01  0.35261233357E+02  0.00000000000E+00 0.  1.
         14    1    6    6    0    0  0.11182893175E+02 -0.39001200487E+02  0.32761181897E+02  0.52148305615E+02  0.00000000000E+00 0. -1.
         -5    1    3    3    0  503 -0.26961111806E+02 -0.34555330403E+02 -0.49771116293E+02  0.66484783418E+02  0.47000000000E+01 0.  1.
         11    1    4    4    0    0 -0.83469176290E+01 -0.10397041450E+02  0.28250667125E+02  0.31238913198E+02  0.00000000000E+00 0. -1.
        -12    1    4    4    0    0  0.94534943543E+02 -0.42096059954E+02  0.16059203977E+02  0.10472264247E+03  0.00000000000E+00 0.  1.
</event>
<event>
12    1  0.8297444E-002  0.2468119E+03  0.7818608E-02  0.1115548E+00
         21   -1    0    0  501  502  0.00000000000E+00  0.00000000000E+00  0.19613822374E+03  0.19613822374E+03  0.00000000000E+00 0.  1.
         21   -1    0    0  502  503 -0.00000000000E+00 -0.00000000000E+00 -0.31449747105E+03  0.31449747105E+03  0.00000000000E+00 0. -1.
         -6    2    1    2    0  503  0.58367220636E+02  0.16547870623E+03 -0.93017546141E+02  0.26252617003E+03  0.17169097647E+03 0.  0.
        -24    2    3    3    0    0 -0.11568191744E+02  0.15199138322E+03 -0.49477952581E+02  0.17891602714E+03  0.79546673991E+02 0.  0.
          6    2    1    2  501    0 -0.58367220636E+02 -0.16547870623E+03 -0.25341701169E+02  0.24810952476E+03  0.17356900587E+03 0.  0.
         24    2    5    5    0    0  0.16894921618E+02 -0.14862825193E+03 -0.22228893001E+02  0.17077837036E+03  0.79343131084E+02 0.  0.
          5    1    5    5  501    0 -0.75262142254E+02 -0.16850454300E+02 -0.31128081678E+01  0.77331154404E+02  0.47000000000E+01 0. -1.
        -13    1    6    6    0    0 -0.23806942857E+02 -0.79522795519E+02  0.11444308908E+02  0.83795093781E+02  0.00000000000E+00 0.  1.
         14    1    6    6    0    0  0.40701864475E+02 -0.69105456410E+02 -0.33673201909E+02  0.86983276577E+02  0.00000000000E+00 0. -1.
         -5    1    3    3    0  503  0.69935412380E+02  0.13487323010E+02 -0.43539593560E+02  0.83610142890E+02  0.47000000000E+01 0.  1.
         11    1    4    4    0    0 -0.20092091553E+02  0.47540073890E+00 -0.76173498732E+01  0.21492839922E+02  0.00000000000E+00 0. -1.
        -12    1    4    4    0    0  0.85238998086E+01  0.15151598248E+03 -0.41860602708E+02  0.15742318722E+03  0.00000000000E+00 0.  1.
</event>
<event>
12    1  0.8297444E-002  0.2651220E+03  0.7818608E-02  0.1104246E+00
         21   -1    0    0  503  502  0.00000000000E+00  0.00000000000E+00  0.67315959558E+03  0.67315959558E+03  0.00000000000E+00 0. -1.
         21   -1    0    0  501  503 -0.00000000000E+00 -0.00000000000E+00 -0.15068991130E+03  0.15068991130E+03  0.00000000000E+00 0.  1.
          6    2    1    2  501    0  0.67041452622E+02  0.18910919891E+03  0.31704891688E+02  0.26605047635E+03  0.17181621090E+03 0.  0.
         24    2    3    3    0    0  0.83555377063E+02  0.55500206814E+02  0.13879322408E+02  0.13016849304E+03  0.81788917326E+02 0.  0.
         -6    2    1    2    0  502 -0.67041452622E+02 -0.18910919891E+03  0.49076479259E+03  0.55779903053E+03  0.17329983073E+03 0.  0.
        -24    2    5    5    0    0 -0.51517102436E+02 -0.82502901699E+02  0.13164556141E+03  0.18283953904E+03  0.81480074655E+02 0.  0.
          5    1    3    3  501    0 -0.16513924441E+02  0.13360899209E+03  0.17825569280E+02  0.13588198331E+03  0.47000000000E+01 0. -1.
        -11    1    4    4    0    0  0.16546213455E+02  0.39948944816E+02 -0.26196132815E+02  0.50556233504E+02  0.00000000000E+00 0.  1.
         12    1    4    4    0    0  0.67009163608E+02  0.15551261998E+02  0.40075455223E+02  0.79612259537E+02  0.00000000000E+00 0. -1.
         -5    1    5    5    0  502 -0.15524350186E+02 -0.10660629721E+03  0.35911923118E+03  0.37495949149E+03  0.47000000000E+01 0.  1.
         13    1    6    6    0    0 -0.28184304005E+02 -0.38542121753E+01  0.82364829485E+02  0.87138826477E+02  0.00000000000E+00 0. -1.
        -14    1    6    6    0    0 -0.23332798432E+02 -0.78648689524E+02  0.49280731928E+02  0.95700712567E+02  0.00000000000E+00 0.  1.
</event>
<event>
12    1  0.8297444E-002  0.2054488E+03  0.7818608E-02  0.1145303E+00
         21   -1    0    0  503  502  0.00000000000E+00  0.00000000000E+00  0.44352039320E+03  0.44352039320E+03  0.00000000000E+00 0.  1.
         21   -1    0    0  501  503 -0.00000000000E+00 -0.00000000000E+00 -0.16503404030E+03  0.16503404030E+03  0.00000000000E+00 0. -1.
          6    2    1    2  501    0  0.11912782074E+02 -0.11131834581E+03 -0.58917021201E+02  0.21372979351E+03  0.17226584326E+03 0.  0.
         24    2    3    3    0    0  0.42449299401E+02 -0.10132989230E+03  0.11981918907E+02  0.13574904074E+03  0.78832389209E+02 0.  0.
         -6    2    1    2    0  502 -0.11912782074E+02  0.11131834581E+03  0.33740337411E+03  0.39482463999E+03  0.17178990364E+03 0.  0.
        -24    2    5    5    0    0  0.48250152221E+02  0.25593162898E+02  0.20453545717E+03  0.22557819542E+03  0.77895326119E+02 0.  0.
          5    1    3    3  501    0 -0.30536517327E+02 -0.99884535167E+01 -0.70898940108E+02  0.77980752770E+02  0.47000000000E+01 0. -1.
        -11    1    4    4    0    0 -0.20653269307E+02 -0.31036255288E+02  0.17380521509E+02  0.41132580800E+02  0.00000000000E+00 0.  1.
         12    1    4    4    0    0  0.63102568708E+02 -0.70293637009E+02 -0.53986026016E+01  0.94616459939E+02  0.00000000000E+00 0. -1.
         -5    1    5    5    0  502 -0.60162934295E+02  0.85725182916E+02  0.13286791693E+03  0.16924644457E+03  0.47000000000E+01 0.  1.
         11    1    6    6    0    0  0.68653861945E+02  0.27590579219E+02  0.17021065391E+03  0.18559703533E+03  0.00000000000E+00 0. -1.
        -12    1    6    6    0    0 -0.20403709724E+02 -0.19974163214E+01  0.34324803268E+02  0.39981160086E+02  0.00000000000E+00 0.  1.
</event>
<event>
12    1  0.8297444E-002  0.1819508E+03  0.7818608E-02  0.1166208E+00
         21   -1    0    0  501  502  0.00000000000E+00  0.00000000000E+00  0.47280033138E+02  0.47280033138E+02  0.00000000000E+00 0.  1.
         21   -1    0    0  502  503 -0.00000000000E+00 -0.00000000000E+00 -0.95306052559E+03  0.95306052559E+03  0.00000000000E+00 0.  1.
         -6    2    1    2    0  503  0.79034491604E+01  0.55967351843E+02 -0.71385372977E+03  0.73667715690E+03  0.17294876988E+03 0.  0.
        -24    2    3    3    0    0  0.35873988638E+02 -0.35430483579E+02 -0.25600004441E+03  0.26892935883E+03  0.65151477917E+02 0.  0.
          6    2    1    2  501    0 -0.79034491604E+01 -0.55967351843E+02 -0.19192676269E+03  0.26366340184E+03  0.17171982486E+03 0.  0.
         24    2    5    5    0    0  0.39760422674E+02 -0.76549610521E+02 -0.17253240667E+03  0.20804231684E+03  0.77932279348E+02 0.  0.
          5    1    5    5  501    0 -0.47663871835E+02  0.20582258678E+02 -0.19394356019E+02  0.55621084994E+02  0.47000000000E+01 0. -1.
        -13    1    6    6    0    0  0.27418885476E+02 -0.89296324586E+02 -0.11682910356E+03  0.14958164427E+03  0.00000000000E+00 0.  1.
         14    1    6    6    0    0  0.12341537198E+02  0.12746714065E+02 -0.55703303109E+02  0.58460672568E+02  0.00000000000E+00 0. -1.
         -5    1    3    3    0  503 -0.27970539478E+02  0.91397835422E+02 -0.45785368536E+03  0.46774779807E+03  0.47000000000E+01 0.  1.
         13    1    4    4    0    0  0.30028787884E+02  0.62919054720E+00 -0.19882344646E+03  0.20107930486E+03  0.00000000000E+00 0. -1.
        -14    1    4    4    0    0  0.58452007549E+01 -0.36059674126E+02 -0.57176597954E+02  0.67850053968E+02  0.00000000000E+00 0.  1.
</event>
<event>
12    1  0.8297444E-002  0.3715233E+03  0.7818608E-02  0.1054129E+00
         21   -1    0    0  501  502  0.00000000000E+00  0.00000000000E+00  0.24407744251E+03  0.24407744251E+03  0.00000000000E+00 0. -1.
         21   -1    0    0  502  503 -0.00000000000E+00 -0.00000000000E+00 -0.79994940414E+03  0.79994940414E+03  0.00000000000E+00 0.  1.
         -6    2    1    2    0  503  0.28556038839E+03  0.16363792561E+03 -0.56074166834E+03  0.67265205858E+03  0.17235854252E+03 0.  0.
        -24    2    3    3    0    0  0.48698002133E+02  0.58108573397E+02 -0.18419578679E+03  0.21543315574E+03  0.82068599388E+02 0.  0.
          6    2    1    2  501    0 -0.28556038839E+03 -0.16363792561E+03  0.48697067060E+01  0.37137478807E+03  0.17196922123E+03 0.  0.
         24    2    5    5    0    0 -0.95733484656E+02 -0.12948467402E+03 -0.29926421147E+01  0.17828257045E+03  0.76449578989E+02 0.  0.
          5    1    5    5  501    0 -0.18982690374E+03 -0.34153251591E+02  0.78623488208E+01  0.19309221762E+03  0.47000000000E+01 0. -1.
        -13    1    6    6    0    0 -0.10568170987E+01 -0.20959912801E+02 -0.24946995934E+02  0.32600420444E+02  0.00000000000E+00 0.  1.
         14    1    6    6    0    0 -0.94676667557E+02 -0.10852476122E+03  0.21954353820E+02  0.14568215000E+03  0.00000000000E+00 0. -1.
         -5    1    3    3    0  503  0.23686238626E+03  0.10552935222E+03 -0.37654588155E+03  0.45721890284E+03  0.47000000000E+01 0.  1.
         13    1    4    4    0    0  0.23554265967E+02  0.90793298432E+01 -0.22691533543E+01  0.25345349328E+02  0.00000000000E+00 0. -1.
        -14    1    4    4    0    0  0.25143736166E+02  0.49029243554E+02 -0.18192663344E+03  0.19008780641E+03  0.00000000000E+00 0.  1.
</event>
<event>
12    1  0.8297444E-002  0.1987351E+03  0.7818608E-02  0.1151058E+00
         21   -1    0    0  501  502  0.00000000000E+00  0.00000000000E+00  0.24701054042E+03  0.24701054042E+03  0.00000000000E+00 0.  1.
         21   -1    0    0  502  503 -0.00000000000E+00 -0.00000000000E+00 -0.19231253578E+03  0.19231253578E+03  0.00000000000E+00 0.  1.
         -6    2    1    2    0  503 -0.23016227498E+02  0.97679543180E+02 -0.64056431842E+02  0.20880344569E+03  0.17153603874E+03 0.  0.
        -24    2    3    3    0    0  0.37349094028E+02  0.85965618456E+02 -0.53380434574E+01  0.12364989491E+03  0.80472103378E+02 0.  0.
          6    2    1    2  501    0  0.23016227498E+02 -0.97679543180E+02  0.11875443647E+03  0.23051963051E+03  0.17019296103E+03 0.  0.
         24    2    5    5    0    0 -0.17549482404E+02 -0.12245528887E+03  0.73110628948E+02  0.16445253159E+03  0.79976177555E+02 0.  0.
          5    1    5    5  501    0  0.40565709902E+02  0.24775745691E+02  0.45643807526E+02  0.66067098922E+02  0.47000000000E+01 0. -1.
        -11    1    6    6    0    0  0.53457835964E+01 -0.19127739903E+02  0.53167888756E+02  0.56756252791E+02  0.00000000000E+00 0.  1.
         12    1    6    6    0    0 -0.22895266001E+02 -0.10332754897E+03  0.19942740192E+02  0.10769627880E+03  0.00000000000E+00 0. -1.
         -5    1    3    3    0  503 -0.60365321526E+02  0.11713924724E+02 -0.58718388385E+02  0.85153550777E+02  0.47000000000E+01 0.  1.
         13    1    4    4    0    0  0.42011593757E+02  0.53518816851E+01  0.30849371274E+01  0.42463319285E+02  0.00000000000E+00 0. -1.
        -14    1    4    4    0    0 -0.46624997294E+01  0.80613736771E+02 -0.84229805847E+01  0.81186575626E+02  0.00000000000E+00 0.  1.
</event>
<event>
12    1  0.8297444E-002  0.2438612E+03  0.7818608E-02  0.1117587E+00
         21   -1    0    0  501  502  0.00000000000E+00  0.00000000000E+00  0.45950695671E+03  0.45950695671E+03  0.00000000000E+00 0. -1.
         21   -1    0    0  502  503 -0.00000000000E+00 -0.00000000000E+00 -0.21042599378E+03  0.21042599378E+03  0.00000000000E+00 0.  1.
         -6    2    1    2    0  503  0.16992743709E+03  0.16317447719E+01 -0.85023219337E+02  0.25629798324E+03  0.17199334848E+03 0.  0.
        -24    2    3    3    0    0  0.56951675776E+02 -0.55442721269E+02 -0.42589119293E+01  0.10607820868E+03  0.70121746345E+02 0.  0.
          6    2    1    2  501    0 -0.16992743709E+03 -0.16317447719E+01  0.33410418227E+03  0.41363496726E+03  0.17490078633E+03 0.  0.
         24    2    5    5    0    0 -0.20997754241E+02 -0.22598071479E+02  0.16682431351E+03  0.18863656330E+03  0.82473164845E+02 0.  0.
          5    1    5    5  501    0 -0.14892968285E+03  0.20966326707E+02  0.16727986876E+03  0.22499840395E+03  0.47000000000E+01 0. -1.
        -13    1    6    6    0    0  0.57933586823E+01  0.25056468120E+02  0.94726887226E+02  0.98155859545E+02  0.00000000000E+00 0.  1.
         14    1    6    6    0    0 -0.26791112924E+02 -0.47654539599E+02  0.72097426282E+02  0.90480703758E+02  0.00000000000E+00 0. -1.
         -5    1    3    3    0  503  0.11297576131E+03  0.57074466041E+02 -0.80764307408E+02  0.15021977456E+03  0.47000000000E+01 0.  1.
         13    1    4    4    0    0  0.70855938231E+02 -0.54331993553E+02 -0.12054489577E+02  0.90099057847E+02  0.00000000000E+00 0. -1.
        -14    1    4    4    0    0 -0.13904262455E+02 -0.11107277160E+01  0.77955776479E+01  0.15979150833E+02  0.00000000000E+00 0.  1.
</event>
<event>
12    1  0.8297444E-002  0.1864883E+03  0.7818608E-02  0.1161735E+00
         21   -1    0    0  503  502  0.00000000000E+00  0.00000000000E+00  0.62679744054E+03  0.62679744054E+03  0.00000000000E+00 0.  1.
         21   -1    0    0  501  503 -0.00000000000E+00 -0.00000000000E+00 -0.68278119176E+02  0.68278119176E+02  0.00000000000E+00 0.  1.
          6    2    1    2  501    0 -0.19811004877E+02 -0.69425021812E+02  0.12813134044E+03  0.22602152668E+03  0.17162686431E+03 0.  0.
         24    2    3    3    0    0  0.42022398083E+02 -0.42517713301E+02  0.12070826383E+03  0.15801737211E+03  0.82615779639E+02 0.  0.
         -6    2    1    2    0  502  0.19811004877E+02  0.69425021812E+02  0.43038798092E+03  0.46905403303E+03  0.17194639344E+03 0.  0.
        -24    2    5    5    0    0 -0.32724169229E+02  0.92950683409E+02  0.31444803945E+03  0.33952580715E+03  0.81789384458E+02 0.  0.
          5    1    3    3  501    0 -0.61833402960E+02 -0.26907308511E+02  0.74230766097E+01  0.68004154574E+02  0.47000000000E+01 0. -1.
        -13    1    4    4    0    0 -0.31712859006E+01 -0.49495809080E+02  0.34452143457E+02  0.60389091395E+02  0.00000000000E+00 0.  1.
         14    1    4    4    0    0  0.45193683984E+02  0.69780957786E+01  0.86256120377E+02  0.97628280714E+02  0.00000000000E+00 0. -1.
         -5    1    5    5    0  502  0.52535174106E+02 -0.23525661597E+02  0.11593994147E+03  0.12952822588E+03  0.47000000000E+01 0.  1.
         13    1    6    6    0    0  0.93600289251E+01 -0.34784043914E+01  0.24729385442E+01  0.10287121251E+02  0.00000000000E+00 0. -1.
        -14    1    6    6    0    0 -0.42084198154E+02  0.96429087800E+02  0.31197510091E+03  0.32923868590E+03  0.00000000000E+00 0.  1.
</event>
<event>
12    1  0.8297444E-002  0.1875357E+03  0.7818608E-02  0.1161388E+00
         21   -1    0    0  501  502  0.00000000000E+00  0.00000000000E+00  0.18910801234E+02  0.18910801234E+02  0.00000000000E+00 0.  1.
         21   -1    0    0  502  503 -0.00000000000E+00 -0.00000000000E+00 -0.27974653582E+04  0.27974653582E+04  0.00000000000E+00 0.  1.
         -6    2    1    2    0  503 -0.76506458740E+01  0.73764306497E+02 -0.22243979849E+04  0.22322894138E+04  0.17224960549E+03 0.  0.
        -24    2    3    3    0    0  0.15046362678E+02 -0.25602087233E+02 -0.86139074787E+03  0.86546841143E+03  0.78483697523E+02 0.  0.
          6    2    1    2  501    0  0.76506458740E+01 -0.73764306497E+02 -0.55415657215E+03  0.58408674568E+03  0.16902104819E+03 0.  0.
         24    2    5    5    0    0 -0.25636706650E+02 -0.20020577585E+02 -0.10719423441E+03  0.13265141522E+03  0.71047377247E+02 0.  0.
          5    1    5    5  501    0  0.33287352524E+02 -0.53743728912E+02 -0.44696233774E+03  0.45143533046E+03  0.47000000000E+01 0. -1.
        -13    1    6    6    0    0 -0.13269856637E+02  0.26416778758E+02 -0.33565459339E+02  0.44727791760E+02  0.00000000000E+00 0.  1.
         14    1    6    6    0    0 -0.12366850013E+02 -0.46437356343E+02 -0.73628775069E+02  0.87923623456E+02  0.00000000000E+00 0. -1.
         -5    1    3    3    0  503 -0.22697008552E+02  0.99366393730E+02 -0.13630072370E+04  0.13668210024E+04  0.47000000000E+01 0.  1.
         13    1    4    4    0    0  0.47008678523E+02 -0.16935414355E+02 -0.45680069743E+03  0.45952529994E+03  0.00000000000E+00 0. -1.
        -14    1    4    4    0    0 -0.31962315845E+02 -0.86666728774E+01 -0.40459005044E+03  0.40594311149E+03  0.00000000000E+00 0.  1.
</event>
<event>
12    1  0.8297444E-002  0.2126693E+03  0.7818608E-02  0.1139918E+00
         21   -1    0    0  501  502  0.00000000000E+00  0.00000000000E+00  0.38252225738E+03  0.38252225738E+03  0.00000000000E+00 0. -1.
         21   -1    0    0  502  503 -0.00000000000E+00 -0.00000000000E+00 -0.23962137746E+03  0.23962137746E+03  0.00000000000E+00 0.  1.
         -6    2    1    2    0  503 -0.87550943192E+02  0.86709433562E+02 -0.15129165835E+03  0.25913194485E+03  0.17051834340E+03 0.  0.
        -24    2    3    3    0    0 -0.25265030955E+01  0.30787046633E+02 -0.98928925908E+01  0.84855814158E+02  0.78411825730E+02 0.  0.
          6    2    1    2  501    0  0.87550943192E+02 -0.86709433562E+02  0.29419253826E+03  0.36301168998E+03  0.17333362044E+03 0.  0.
         24    2    5    5    0    0  0.55531407004E+02 -0.10967146439E+03  0.14450266247E+03  0.20815157739E+03  0.85641651330E+02 0.  0.
          5    1    5    5  501    0  0.32019536188E+02  0.22962030832E+02  0.14968987580E+03  0.15486011260E+03  0.47000000000E+01 0. -1.
        -11    1    6    6    0    0 -0.22488558452E+02 -0.34473860814E+02  0.34024735030E+02  0.53402855116E+02  0.00000000000E+00 0.  1.
         12    1    6    6    0    0  0.78019965456E+02 -0.75197603581E+02  0.11047792744E+03  0.15474872227E+03  0.00000000000E+00 0. -1.
         -5    1    3    3    0  503 -0.85024440096E+02  0.55922386929E+02 -0.14139876575E+03  0.17427613070E+03  0.47000000000E+01 0.  1.
         11    1    4    4    0    0 -0.27459499756E+02  0.43179752965E+02  0.79512291127E+01  0.51785492538E+02  0.00000000000E+00 0. -1.
        -12    1    4    4    0    0  0.24932996660E+02 -0.12392706332E+02 -0.17844121704E+02  0.33070321620E+02  0.00000000000E+00 0.  1.
</event>
<event>
12    1  0.8297444E-002  0.2190396E+03  0.7818608E-02  0.1134716E+00
         21   -1    0    0  503  502  0.00000000000E+00  0.00000000000E+00  0.97825562930E+02  0.97825562930E+02  0.00000000000E+00 0. -1.
         21   -1    0    0  501  503 -0.00000000000E+00 -0.00000000000E+00 -0.74231056213E+03  0.74231056213E+03  0.00000000000E+00 0.  1.
          6    2    1    2  501    0 -0.26156760376E+02  0.13350476067E+03 -0.56789324128E+03  0.60867158060E+03  0.17167021379E+03 0.  0.
         24    2    3    3    0    0 -0.19562833477E+02  0.16198077280E+03 -0.53299572342E+03  0.56290816844E+03  0.78490061228E+02 0.  0.
         -6    2    1    2    0  502  0.26156760376E+02 -0.13350476067E+03 -0.76591757923E+02  0.23146454446E+03  0.17088546084E+03 0.  0.
        -24    2    5    5    0    0  0.61904959754E+02 -0.27921403448E+02 -0.18687032434E+02  0.10576320670E+03  0.78897540505E+02 0.  0.
          5    1    3    3  501    0 -0.65939268991E+01 -0.28476012132E+02 -0.34897517861E+02  0.45763412151E+02  0.47000000000E+01 0. -1.
        -13    1    4    4    0    0 -0.12602739771E+02 -0.43447333293E+01 -0.60290842032E+02  0.61746994990E+02  0.00000000000E+00 0.  1.
         14    1    4    4    0    0 -0.69600937058E+01  0.16632550613E+03 -0.47270488138E+03  0.50116117345E+03  0.00000000000E+00 0. -1.
         -5    1    5    5    0  502 -0.35748199378E+02 -0.10558335722E+03 -0.57904725489E+02  0.12570133776E+03  0.47000000000E+01 0.  1.
         11    1    6    6    0    0  0.40779846494E+02 -0.11045567973E+02  0.28790607494E+02  0.51126309586E+02  0.00000000000E+00 0. -1.
        -12    1    6    6    0    0  0.21125113260E+02 -0.16875835475E+02 -0.47477639928E+02  0.54636897115E+02  0.00000000000E+00 0.  1.
</event>
<event>
12    1  0.8297444E-002  0.2010832E+03  0.7818608E-02  0.1149060E+00
         21   -1    0    0  503  502  0.00000000000E+00  0.00000000000E+00  0.35660601199E+03  0.35660601199E+03  0.00000000000E+00 0.  1.
         21   -1    0    0  501  503 -0.00000000000E+00 -0.00000000000E+00 -0.14488497614E+03  0.14488497614E+03  0.00000000000E+00 0.  1.
          6    2    1    2  501    0  0.82977412790E+02 -0.59700372950E+02  0.22414670822E+03  0.30112491578E+03  0.17316201238E+03 0.  0.
         24    2    3    3    0    0  0.83774495452E+02  0.20786726318E+02  0.10999410211E+03  0.16136900008E+03  0.80566727685E+02 0.  0.
         -6    2    1    2    0  502 -0.82977412790E+02  0.59700372950E+02 -0.12425672369E+02  0.20036607235E+03  0.17188013280E+03 0.  0.
        -24    2    5    5    0    0 -0.23484189494E+02  0.32035598115E+02  0.53922246839E+02  0.10693738421E+03  0.83367911897E+02 0.  0.
          5    1    3    3  501    0 -0.79708266282E+00 -0.80487099268E+02  0.11415260611E+03  0.13975591570E+03  0.47000000000E+01 0. -1.
        -11    1    4    4    0    0  0.59224078058E+02 -0.90804720288E+01  0.10694659741E+03  0.12258679003E+03  0.00000000000E+00 0.  1.
         12    1    4    4    0    0  0.24550417394E+02  0.29867198347E+02  0.30475047013E+01  0.38782210048E+02  0.00000000000E+00 0. -1.
         -5    1    5    5    0  502 -0.59493223296E+02  0.27664774835E+02 -0.66347919208E+02  0.93428688143E+02  0.47000000000E+01 0.  1.
         13    1    6    6    0    0  0.20712554327E+02  0.15907914049E+02  0.53895659507E+02  0.59890013774E+02  0.00000000000E+00 0. -1.
        -14    1    6    6    0    0 -0.44196743821E+02  0.16127684066E+02  0.26587331894E-01  0.47047370433E+02  0.00000000000E+00 0.  1.
</event>
<event>
12    1  0.8297444E-002  0.3785035E+03  0.7818608E-02  0.1051834E+00
         21   -1    0    0  503  502  0.00000000000E+00  0.00000000000E+00  0.93613002541E+03  0.93613002541E+03  0.00000000000E+00 0.  1.
         21   -1    0    0  501  503 -0.00000000000E+00 -0.00000000000E+00 -0.28502038530E+03  0.28502038530E+03  0.00000000000E+00 0.  1.
          6    2    1    2  501    0  0.30735699480E+03 -0.13075722288E+03 -0.91422548994E+02  0.38938792482E+03  0.17804241051E+03 0.  0.
         24    2    3    3    0    0  0.17164326313E+03 -0.13020864057E+03 -0.78356841677E+01  0.22992830022E+03  0.79937009174E+02 0.  0.
         -6    2    1    2    0  502 -0.30735699480E+03  0.13075722288E+03  0.74253218910E+03  0.83176248589E+03  0.17002649055E+03 0.  0.
        -24    2    5    5    0    0 -0.11808682106E+03  0.91924092244E+02  0.45446553804E+03  0.48486812711E+03  0.78508849001E+02 0.  0.
          5    1    3    3  501    0  0.13571373167E+03 -0.54858230183E+00 -0.83586864827E+02  0.15945962460E+03  0.47000000000E+01 0. -1.
        -13    1    4    4    0    0  0.11647416689E+03 -0.96129868807E+02 -0.41837697502E+02  0.15670857080E+03  0.00000000000E+00 0.  1.
         14    1    4    4    0    0  0.55169096243E+02 -0.34078771767E+02  0.34002013334E+02  0.73219729419E+02  0.00000000000E+00 0. -1.
         -5    1    5    5    0  502 -0.18927017374E+03  0.38833130633E+02  0.28806665106E+03  0.34689435878E+03  0.47000000000E+01 0.  1.
         11    1    6    6    0    0 -0.13060968172E+02  0.40449582266E+01  0.15471022810E+03  0.15531324881E+03  0.00000000000E+00 0. -1.
        -12    1    6    6    0    0 -0.10502585289E+03  0.87879134017E+02  0.29975530994E+03  0.32955487830E+03  0.00000000000E+00 0.  1.
</event>
<event>
12    1  0.8297444E-002  0.1777590E+03  0.7818608E-02  0.1170120E+00
         21   -1    0    0  501  502  0.00000000000E+00  0.00000000000E+00  0.13757410027E+03  0.13757410027E+03  0.00000000000E+00 0. -1.
         21   -1    0    0  502  503 -0.00000000000E+00 -0.00000000000E+00 -0.24917720335E+03  0.24917720335E+03  0.00000000000E+00 0. -1.
         -6    2    1    2    0  503  0.36251723941E+02  0.39019021483E+02 -0.11075271563E+03  0.20899030150E+03  0.16903878423E+03 0.  0.
        -24    2    3    3    0    0  0.43696080953E+02  0.79288751827E+02 -0.11652680197E+03  0.16736699425E+03  0.78975702137E+02 0.  0.
          6    2    1    2  501    0 -0.36251723941E+02 -0.39019021483E+02 -0.85038745049E+00  0.17776100212E+03  0.16959239131E+03 0.  0.
         24    2    5    5    0    0  0.30168511328E+02 -0.21131498461E+02  0.41584100473E+02  0.96801834024E+02  0.79275963288E+02 0.  0.
          5    1    5    5  501    0 -0.66420235270E+02 -0.17887523021E+02 -0.42434487923E+02  0.80959168094E+02  0.47000000000E+01 0. -1.
        -11    1    6    6    0    0  0.43441814899E+02 -0.25897142660E+02 -0.23799353260E+01  0.50631189714E+02  0.00000000000E+00 0.  1.
         12    1    6    6    0    0 -0.13273303570E+02  0.47656441990E+01  0.43964035799E+02  0.46170644310E+02  0.00000000000E+00 0. -1.
         -5    1    3    3    0  503 -0.74443570112E+01 -0.40269730344E+02  0.57740863459E+01  0.41623307250E+02  0.47000000000E+01 0.  1.
         13    1    4    4    0    0  0.39199149209E+02  0.30467987169E+02 -0.10775191851E+02  0.50803309934E+02  0.00000000000E+00 0. -1.
        -14    1    4    4    0    0  0.44969317434E+01  0.48820764658E+02 -0.10575161012E+03  0.11656368431E+03  0.00000000000E+00 0.  1.
</event>
<event>
12    1  0.8297444E-002  0.1946196E+03  0.7818608E-02  0.1154909E+00
         21   -1    0    0  503  502  0.00000000000E+00  0.00000000000E+00  0.12933154318E+03  0.12933154318E+03  0.00000000000E+00 0. -1.
         21   -1    0    0  501  503 -0.00000000000E+00 -0.00000000000E+00 -0.44767321335E+03  0.44767321335E+03  0.00000000000E+00 0.  1.
          6    2    1    2  501    0  0.73300836296E+02 -0.48730946537E+02 -0.33152603380E+03  0.38442985092E+03  0.17357730682E+03 0.  0.
         24    2    3    3    0    0  0.11759646979E+03 -0.44412902984E+02 -0.25402656004E+03  0.29493679488E+03  0.81589117609E+02 0.  0.
         -6    2    1    2    0  502 -0.73300836296E+02  0.48730946537E+02  0.13184363619E+02  0.19257490561E+03  0.17077338515E+03 0.  0.
        -24    2    5    5    0    0  0.10403935329E+02  0.35193263803E+02  0.32092706864E+02  0.10557276144E+03  0.93642182994E+02 0.  0.
          5    1    3    3  501    0 -0.44295633492E+02 -0.43180435526E+01 -0.77499473756E+02  0.89493056038E+02  0.47000000000E+01 0. -1.
        -13    1    4    4    0    0  0.48625866062E+02 -0.55234083173E+02 -0.17288406311E+03  0.18789406077E+03  0.00000000000E+00 0.  1.
         14    1    4    4    0    0  0.68970603726E+02  0.10821180189E+02 -0.81142496930E+02  0.10704273412E+03  0.00000000000E+00 0. -1.
         -5    1    5    5    0  502 -0.83704771625E+02  0.13537682734E+02 -0.18908343246E+02  0.87002144174E+02  0.47000000000E+01 0.  1.
         13    1    6    6    0    0 -0.16806646320E+02  0.45635016710E+02  0.51284530009E+02  0.70676170870E+02  0.00000000000E+00 0. -1.
        -14    1    6    6    0    0  0.27210581649E+02 -0.10441752908E+02 -0.19191823145E+02  0.34896590565E+02  0.00000000000E+00 0.  1.
</event>
<event>
12    1  0.8297444E-002  0.2410425E+03  0.7818608E-02  0.1119164E+00
         21   -1    0    0  503  502  0.00000000000E+00  0.00000000000E+00  0.25681661651E+03  0.25681661651E+03  0.00000000000E+00 0. -1.
         21   -1    0    0  501  503 -0.00000000000E+00 -0.00000000000E+00 -0.26160208533E+03  0.26160208533E+03  0.00000000000E+00 0.  1.
          6    2    1    2  501    0  0.80706522248E+02 -0.14732800539E+03 -0.98183042805E+02  0.25991420610E+03  0.17232643654E+03 0.  0.
         24    2    3    3    0    0  0.72279061803E+02 -0.16832950281E+03 -0.11527206795E+03  0.23117034130E+03  0.81197245983E+02 0.  0.
         -6    2    1    2    0  502 -0.80706522248E+02  0.14732800539E+03  0.93397573988E+02  0.25850449574E+03  0.17286521798E+03 0.  0.
        -24    2    5    5    0    0 -0.42083830346E+02  0.10636934807E+03  0.13763140152E+03  0.18675461464E+03  0.53379737919E+02 0.  0.
          5    1    3    3  501    0  0.84274604447E+01  0.21001497421E+02  0.17089025141E+02  0.28743864802E+02  0.47000000000E+01 0. -1.
        -13    1    4    4    0    0  0.69215074961E+02 -0.14943820402E+03 -0.12765922171E+03  0.20837317560E+03  0.00000000000E+00 0.  1.
         14    1    4    4    0    0  0.30639868424E+01 -0.18891298787E+02  0.12387153765E+02  0.22797165693E+02  0.00000000000E+00 0. -1.
         -5    1    5    5    0  502 -0.38622691902E+02  0.40958657319E+02 -0.44233827536E+02  0.71749881098E+02  0.47000000000E+01 0.  1.
         11    1    6    6    0    0  0.29759049819E+01  0.63347851369E+02  0.77858613011E+02  0.10041797600E+03  0.00000000000E+00 0. -1.
        -12    1    6    6    0    0 -0.45059735328E+02  0.43021496699E+02  0.59772788513E+02  0.86336638646E+02  0.00000000000E+00 0.  1.
</event>
<event>
12    1  0.8297444E-002  0.1823355E+03  0.7818608E-02  0.1165715E+00
         21   -1    0    0  501  502  0.00000000000E+00  0.00000000000E+00  0.18384448109E+04  0.18384448109E+04  0.00000000000E+00 0.  1.
         21   -1    0    0  502  503 -0.00000000000E+00 -0.00000000000E+00 -0.19384118697E+02  0.19384118697E+02  0.00000000000E+00 0.  1.
         -6    2    1    2    0  503 -0.35123030903E+02 -0.52971059597E+02  0.66462627147E+03  0.68918381454E+03  0.17089964611E+03 0.  0.
        -24    2    3    3    0    0  0.39262832294E+02 -0.51210499932E+02  0.45561498925E+03  0.46727355720E+03  0.81212520790E+02 0.  0.
          6    2    1    2  501    0  0.35123030903E+02  0.52971059597E+02  0.11544344207E+04  0.11686451150E+04  0.17021460784E+03 0.  0.
         24    2    5    5    0    0 -0.22196194827E+02  0.82423572740E+02  0.70420975987E+03  0.71380747434E+03  0.79519859866E+02 0.  0.
          5    1    5    5  501    0  0.57319225730E+02 -0.29452513142E+02  0.45022466084E+03  0.45483764070E+03  0.47000000000E+01 0. -1.
        -11    1    6    6    0    0  0.22266707929E+02  0.31758134981E+02  0.41669865955E+03  0.41849989043E+03  0.00000000000E+00 0.  1.
         12    1    6    6    0    0 -0.44462902756E+02  0.50665437759E+02  0.28751110033E+03  0.29530758391E+03  0.00000000000E+00 0. -1.
         -5    1    3    3    0  503 -0.74385863197E+02 -0.17605596647E+01  0.20901128222E+03  0.22191025733E+03  0.47000000000E+01 0.  1.
         11    1    4    4    0    0 -0.18188452510E+01 -0.57394216042E+02  0.33022382079E+03  0.33517931925E+03  0.00000000000E+00 0. -1.
        -12    1    4    4    0    0  0.41081677545E+02  0.61837161095E+01  0.12539116846E+03  0.13209423796E+03  0.00000000000E+00 0.  1.
</event>
<event>
12    1  0.8297444E-002  0.2121916E+03  0.7818608E-02  0.1140295E+00
         21   -1    0    0  501  502  0.00000000000E+00  0.00000000000E+00  0.27744241082E+03  0.27744241082E+03  0.00000000000E+00 0. -1.
         21   -1    0    0  502  503 -0.00000000000E+00 -0.00000000000E+00 -0.16120454805E+03  0.16120454805E+03  0.00000000000E+00 0.  1.
         -6    2    1    2    0  503  0.69671660132E+02  0.99002705700E+02  0.43602304850E+02  0.21436771406E+03  0.17145460006E+03 0.  0.
        -24    2    3    3    0    0  0.34817861738E+02  0.12512041699E+03  0.62990308923E+02  0.16646252846E+03  0.82913160117E+02 0.  0.
          6    2    1    2  501    0 -0.69671660132E+02 -0.99002705700E+02  0.72635557924E+02  0.22427924481E+03  0.17426869890E+03 0.  0.
         24    2    5    5    0    0  0.20057992778E+02 -0.18665036554E+02  0.18989317651E+02  0.92349108787E+02  0.86122337666E+02 0.  0.
          5    1    5    5  501    0 -0.89729652911E+02 -0.80337669146E+02  0.53646240274E+02  0.13193013602E+03  0.47000000000E+01 0. -1.
        -11    1    6    6    0    0 -0.10479935395E+02 -0.46715520946E+02  0.17106014034E+02  0.50840777524E+02  0.00000000000E+00 0.  1.
         12    1    6    6    0    0  0.30537928173E+02  0.28050484392E+02  0.18833036172E+01  0.41508331263E+02  0.00000000000E+00 0. -1.
         -5    1    3    3    0  503  0.34853798395E+02 -0.26117711288E+02 -0.19388004073E+02  0.47905185600E+02  0.47000000000E+01 0.  1.
         11    1    4    4    0    0 -0.68357026291E+01  0.32274421225E+02  0.55322849707E+02  0.64412598112E+02  0.00000000000E+00 0. -1.
        -12    1    4    4    0    0  0.41653564367E+02  0.92845995763E+02  0.76674592161E+01  0.10204993035E+03  0.00000000000E+00 0.  1.
</event>
<event>
12    1  0.8297444E-002  0.2475778E+03  0.7818608E-02  0.1114888E+00
         21   -1    0    0  501  502  0.00000000000E+00  0.00000000000E+00  0.14890614175E+03  0.14890614175E+03  0.00000000000E+00 0. -1.
         21   -1    0    0  502  503 -0.00000000000E+00 -0.00000000000E+00 -0.41131266825E+03  0.41131266825E+03  0.00000000000E+00 0. -1.
         -6    2    1    2    0  503 -0.81015078452E+02  0.15964441949E+03 -0.12633617176E+03  0.27794892038E+03  0.17101166754E+03 0.  0.
        -24    2    3    3    0    0 -0.11267108342E+03  0.15135520875E+03 -0.78894532983E+02  0.22012493959E+03  0.81409271216E+02 0.  0.
          6    2    1    2  501    0  0.81015078452E+02 -0.15964441949E+03 -0.13607035474E+03  0.28226988962E+03  0.17062053081E+03 0.  0.
         24    2    5    5    0    0  0.47570237283E+02 -0.18228625182E+03 -0.12479527691E+03  0.24007477909E+03  0.81060676890E+02 0.  0.
          5    1    5    5  501    0  0.33444841170E+02  0.22641832331E+02 -0.11275077829E+02  0.42195110525E+02  0.47000000000E+01 0. -1.
        -13    1    6    6    0    0 -0.18524462832E+02 -0.20639421534E+02 -0.47000005507E+01  0.28128836621E+02  0.00000000000E+00 0.  1.
         14    1    6    6    0    0  0.66094700115E+02 -0.16164683029E+03 -0.12009527636E+03  0.21194594247E+03  0.00000000000E+00 0. -1.
         -5    1    3    3    0  503  0.31656004963E+02  0.82892107373E+01 -0.47441638779E+02  0.57823980794E+02  0.47000000000E+01 0.  1.
         13    1    4    4    0    0 -0.50571202679E+02  0.87078555545E+02 -0.83234089309E+02  0.13064468990E+03  0.00000000000E+00 0. -1.
        -14    1    4    4    0    0 -0.62099880737E+02  0.64276653209E+02  0.43395563268E+01  0.89480249689E+02  0.00000000000E+00 0.  1.
</event>
<event>
12    1  0.8297444E-002  0.1997316E+03  0.7818608E-02  0.1149989E+00
         21   -1    0    0  503  502  0.00000000000E+00  0.00000000000E+00  0.17159231671E+03  0.17159231671E+03  0.00000000000E+00 0. -1.
         21   -1    0    0  501  503 -0.00000000000E+00 -0.00000000000E+00 -0.28845625662E+03  0.28845625662E+03  0.00000000000E+00 0.  1.
          6    2    1    2  501    0  0.41601913513E+02  0.90210791436E+02 -0.15986101206E+03  0.25574128719E+03  0.17314547842E+03 0.  0.
         24    2    3    3    0    0  0.28492234529E+01  0.80561676652E+01 -0.14239856879E+03  0.16312282187E+03  0.79111836729E+02 0.  0.
         -6    2    1    2    0  502 -0.41601913513E+02 -0.90210791436E+02  0.42997072149E+02  0.20430728614E+03  0.17327438604E+03 0.  0.
        -24    2    5    5    0    0 -0.69704134061E+02 -0.10499575873E+03  0.12455971190E+00  0.15074916463E+03  0.82719522871E+02 0.  0.
          5    1    3    3  501    0  0.38752690060E+02  0.82154623771E+02 -0.17462443275E+02  0.92618465324E+02  0.47000000000E+01 0. -1.
        -13    1    4    4    0    0  0.26074337766E+02 -0.19891950256E+02 -0.28102952511E+02  0.43189544045E+02  0.00000000000E+00 0.  1.
         14    1    4    4    0    0 -0.23225114313E+02  0.27948117921E+02 -0.11429561627E+03  0.11993327782E+03  0.00000000000E+00 0. -1.
         -5    1    5    5    0  502  0.28102220548E+02  0.14784967292E+02  0.42872512438E+02  0.53558121516E+02  0.47000000000E+01 0.  1.
         13    1    6    6    0    0 -0.51610663416E+02 -0.65347056882E+02  0.39363631615E+02  0.92105341405E+02  0.00000000000E+00 0. -1.
        -14    1    6    6    0    0 -0.18093470645E+02 -0.39648701846E+02 -0.39239071903E+02  0.58643823221E+02  0.00000000000E+00 0.  1.
</event>
<event>
12    1  0.8297444E-002  0.1859293E+03  0.7818608E-02  0.1162662E+00
         21   -1    0    0  503  502  0.00000000000E+00  0.00000000000E+00  0.16199714121E+03  0.16199714121E+03  0.00000000000E+00 0. -1.
         21   -1    0    0  501  503 -0.00000000000E+00 -0.00000000000E+00 -0.21118108139E+03  0.21118108139E+03  0.00000000000E+00 0.  1.
          6    2    1    2  501    0  0.67853760580E+02  0.35470200193E+01 -0.20188971646E+02  0.18702217313E+03  0.17306930545E+03 0.  0.
         24    2    3    3    0    0  0.19271017352E+02  0.67784169179E+02 -0.87680045196E+01  0.10554074726E+03  0.78076281468E+02 0.  0.
         -6    2    1    2    0  502 -0.67853760580E+02 -0.35470200193E+01 -0.28994968530E+02  0.18615604947E+03  0.17087027939E+03 0.  0.
        -24    2    5    5    0    0 -0.28193976218E+02 -0.52143378844E+02  0.27655821153E+02  0.10150437165E+03  0.77617399906E+02 0.  0.
          5    1    3    3  501    0  0.48582743228E+02 -0.64237149159E+02 -0.11420967126E+02  0.81481425870E+02  0.47000000000E+01 0. -1.
        -11    1    4    4    0    0  0.46512267483E+02  0.21287825086E+02 -0.69403141869E+01  0.51621027540E+02  0.00000000000E+00 0.  1.
         12    1    4    4    0    0 -0.27241250131E+02  0.46496344093E+02 -0.18276903327E+01  0.53919719720E+02  0.00000000000E+00 0. -1.
         -5    1    5    5    0  502 -0.39659784362E+02  0.48596358825E+02 -0.56650789683E+02  0.84651677824E+02  0.47000000000E+01 0.  1.
         11    1    6    6    0    0 -0.43960906541E+02 -0.73356356772E+01 -0.34865744681E+01  0.44704910874E+02  0.00000000000E+00 0. -1.
        -12    1    6    6    0    0  0.15766930323E+02 -0.44807743167E+02  0.31142395621E+02  0.56799460777E+02  0.00000000000E+00 0.  1.
</event>
<event>
12    1  0.8297444E-002  0.2975104E+03  0.7818608E-02  0.1086852E+00
         21   -1    0    0  501  502  0.00000000000E+00  0.00000000000E+00  0.13276454792E+03  0.13276454792E+03  0.00000000000E+00 0. -1.
         21   -1    0    0  502  503 -0.00000000000E+00 -0.00000000000E+00 -0.69395423144E+03  0.69395423144E+03  0.00000000000E+00 0.  1.
         -6    2    1    2    0  503 -0.47750275765E+02 -0.23518315386E+03 -0.18835449646E+03  0.34972974811E+03  0.17100373001E+03 0.  0.
        -24    2    3    3    0    0 -0.48188614073E+02 -0.99563129701E+02 -0.16294208537E+03  0.21166866115E+03  0.77579247263E+02 0.  0.
          6    2    1    2  501    0  0.47750275765E+02  0.23518315386E+03 -0.37283518706E+03  0.47698903124E+03  0.17584440429E+03 0.  0.
         24    2    5    5    0    0  0.21366617207E+02  0.20747544396E+03 -0.37715151882E+03  0.43820069089E+03  0.79208491813E+02 0.  0.
          5    1    5    5  501    0  0.26383658557E+02  0.27707709908E+02  0.43163317623E+01  0.38788340350E+02  0.47000000000E+01 0. -1.
        -13    1    6    6    0    0 -0.20169208849E+02  0.60972061367E+02 -0.67721378855E+02  0.93330458088E+02  0.00000000000E+00 0.  1.
         14    1    6    6    0    0  0.41535826056E+02  0.14650338259E+03 -0.30943013996E+03  0.34487023280E+03  0.00000000000E+00 0. -1.
         -5    1    3    3    0  503  0.43833830824E+00 -0.13562002416E+03 -0.25412411088E+02  0.13806108696E+03  0.47000000000E+01 0.  1.
         13    1    4    4    0    0 -0.17629035626E+02 -0.26140258479E+02 -0.13403237328E+01  0.31557764150E+02  0.00000000000E+00 0. -1.
        -14    1    4    4    0    0 -0.30559578447E+02 -0.73422871222E+02 -0.16160176164E+03  0.18011089700E+03  0.00000000000E+00 0.  1.
</event>
<event>
12    1  0.8297444E-002  0.4131473E+03  0.7818608E-02  0.1039556E+00
         21   -1    0    0  501  502  0.00000000000E+00  0.00000000000E+00  0.35225217894E+03  0.35225217894E+03  0.00000000000E+00 0.  1.
         21   -1    0    0  502  503 -0.00000000000E+00 -0.00000000000E+00 -0.66098229178E+03  0.66098229178E+03  0.00000000000E+00 0. -1.
         -6    2    1    2    0  503  0.16580424360E+03 -0.33712784510E+03 -0.41815327863E+03  0.58584224432E+03  0.16496284326E+03 0.  0.
        -24    2    3    3    0    0  0.12576345914E+03 -0.13903010554E+03 -0.16930819933E+03  0.26523041931E+03  0.80846094942E+02 0.  0.
          6    2    1    2  501    0 -0.16580424360E+03  0.33712784510E+03  0.10942316579E+03  0.42739222641E+03  0.17188500470E+03 0.  0.
         24    2    5    5    0    0 -0.70454417491E+02  0.26976896957E+03  0.40548832124E+02  0.29176563871E+03  0.75788246179E+02 0.  0.
          5    1    5    5  501    0 -0.95349826105E+02  0.67358875531E+02  0.68874333670E+02  0.13562658769E+03  0.47000000000E+01 0. -1.
        -13    1    6    6    0    0 -0.56285193392E+02  0.20774499334E+03  0.63053999010E+02  0.22428065464E+03  0.00000000000E+00 0.  1.
         14    1    6    6    0    0 -0.14169224099E+02  0.62023976233E+02 -0.22505166886E+02  0.67484984077E+02  0.00000000000E+00 0. -1.
         -5    1    3    3    0  503  0.40040784460E+02 -0.19809773956E+03 -0.24884507931E+03  0.32061182501E+03  0.47000000000E+01 0.  1.
         11    1    4    4    0    0  0.67404716950E+02 -0.87692103406E+02 -0.14776398625E+03  0.18457382398E+03  0.00000000000E+00 0. -1.
        -12    1    4    4    0    0  0.58358742186E+02 -0.51338002138E+02 -0.21544213077E+02  0.80656595329E+02  0.00000000000E+00 0.  1.
</event>
<event>
12    1  0.8297444E-002  0.2287089E+03  0.7818608E-02  0.1127760E+00
         21   -1    0    0  503  502  0.00000000000E+00  0.00000000000E+00  0.42211530468E+03  0.42211530468E+03  0.00000000000E+00 0.  1.
         21   -1    0    0  501  503 -0.00000000000E+00 -0.00000000000E+00 -0.18929173243E+03  0.18929173243E+03  0.00000000000E+00 0. -1.
          6    2    1    2  501    0 -0.69530166978E+02 -0.13353976254E+03 -0.63914363509E+02  0.23747166244E+03  0.17216396923E+03 0.  0.
         24    2    3    3    0    0 -0.25082175351E+02  0.23317751979E+01 -0.97660854333E+01  0.84531070232E+02  0.80097270327E+02 0.  0.
         -6    2    1    2    0  502  0.69530166978E+02  0.13353976254E+03  0.29673793576E+03  0.37393537468E+03  0.17060758956E+03 0.  0.
        -24    2    5    5    0    0  0.82430109973E+02  0.25124114409E+02  0.14637264522E+03  0.18805322952E+03  0.80703913839E+02 0.  0.
          5    1    3    3  501    0 -0.44447991628E+02 -0.13587153773E+03 -0.54148278076E+02  0.15294059221E+03  0.47000000000E+01 0. -1.
        -11    1    4    4    0    0 -0.29167815530E+02 -0.33068102843E+02  0.78380696966E+01  0.44785000000E+02  0.00000000000E+00 0.  1.
         12    1    4    4    0    0  0.40856401789E+01  0.35399878041E+02 -0.17604155130E+02  0.39746070232E+02  0.00000000000E+00 0. -1.
         -5    1    5    5    0  502 -0.12899942995E+02  0.10841564813E+03  0.15036529054E+03  0.18588214515E+03  0.47000000000E+01 0.  1.
         11    1    6    6    0    0  0.86127555648E+02  0.44547583987E+02  0.13113093999E+03  0.16308821694E+03  0.00000000000E+00 0. -1.
        -12    1    6    6    0    0 -0.36974456752E+01 -0.19423469578E+02  0.15241705234E+02  0.24965012585E+02  0.00000000000E+00 0.  1.
</event>
<event>
12    1  0.8297444E-002  0.2136886E+03  0.7818608E-02  0.1139076E+00
         21   -1    0    0  503  502  0.00000000000E+00  0.00000000000E+00  0.40793289460E+02  0.40793289460E+02  0.00000000000E+00 0. -1.
         21   -1    0    0  501  503 -0.00000000000E+00 -0.00000000000E+00 -0.11385145325E+04  0.11385145325E+04  0.00000000000E+00 0. -1.
          6    2    1    2  501    0 -0.11186757515E+03  0.57988817903E+02 -0.64175679477E+03  0.67575404443E+03  0.17004319322E+03 0.  0.
         24    2    3    3    0    0 -0.25968480374E+02  0.85069238899E+02 -0.37398594731E+03  0.39320259702E+03  0.82653833179E+02 0.  0.
         -6    2    1    2    0  502  0.11186757515E+03 -0.57988817903E+02 -0.45596444827E+03  0.50355377753E+03  0.17258554807E+03 0.  0.
        -24    2    5    5    0    0  0.10233697570E+03 -0.30874441988E+02 -0.18810363811E+03  0.23411449805E+03  0.89445691692E+02 0.  0.
          5    1    3    3  501    0 -0.85899094775E+02 -0.27080420996E+02 -0.26777084746E+03  0.28255144741E+03  0.47000000000E+01 0. -1.
        -11    1    4    4    0    0  0.19237632417E+02  0.38611654933E+01 -0.23559617950E+02  0.30660246214E+02  0.00000000000E+00 0.  1.
         12    1    4    4    0    0 -0.45206112791E+02  0.81208073406E+02 -0.35042632936E+03  0.36254235081E+03  0.00000000000E+00 0. -1.
         -5    1    5    5    0  502  0.95305994485E+01 -0.27114375915E+02 -0.26786081016E+03  0.26943927948E+03  0.47000000000E+01 0.  1.
         11    1    6    6    0    0  0.10636662903E+03 -0.51582723549E+02 -0.16218253826E+03  0.20069333037E+03  0.00000000000E+00 0. -1.
        -12    1    6    6    0    0 -0.40296533313E+01  0.20708281561E+02 -0.25921099855E+02  0.33421167677E+02  0.00000000000E+00 0.  1.
</event>
<event>
12    1  0.8297444E-002  0.2618342E+03  0.7818608E-02  0.1106058E+00
         21   -1    0    0  501  502  0.00000000000E+00  0.00000000000E+00  0.24874173788E+03  0.24874173788E+03  0.00000000000E+00 0.  1.
         21   -1    0    0  502  503 -0.00000000000E+00 -0.00000000000E+00 -0.29465811983E+03  0.29465811983E+03  0.00000000000E+00 0.  1.
         -6    2    1    2    0  503  0.17045956361E+03  0.99550489852E+02 -0.92178639685E+02  0.27751009753E+03  0.17189586894E+03 0.  0.
        -24    2    3    3    0    0  0.52512636406E+02  0.81573726706E+02 -0.94854597046E+02  0.15807855899E+03  0.81114649475E+02 0.  0.
          6    2    1    2  501    0 -0.17045956361E+03 -0.99550489852E+02  0.46262257731E+02  0.26588976018E+03  0.17201861883E+03 0.  0.
         24    2    5    5    0    0 -0.19594768883E+03 -0.71390251561E+02  0.46156755338E+02  0.22761777724E+03  0.78659657240E+02 0.  0.
          5    1    5    5  501    0  0.25488125217E+02 -0.28160238291E+02  0.10550239376E+00  0.38271982944E+02  0.47000000000E+01 0. -1.
        -11    1    6    6    0    0 -0.11373845708E+03 -0.36585925290E+02  0.65527155357E+02  0.13626729115E+03  0.00000000000E+00 0.  1.
         12    1    6    6    0    0 -0.82209231749E+02 -0.34804326271E+02 -0.19370400019E+02  0.91350486090E+02  0.00000000000E+00 0. -1.
         -5    1    3    3    0  503  0.11794692721E+03  0.17976763146E+02  0.26759573608E+01  0.11943153854E+03  0.47000000000E+01 0.  1.
         11    1    4    4    0    0 -0.71638199737E+01  0.48396362730E+01 -0.50490847600E+02  0.51225658485E+02  0.00000000000E+00 0. -1.
        -12    1    4    4    0    0  0.59676456379E+02  0.76734090433E+02 -0.44363749446E+02  0.10685290050E+03  0.00000000000E+00 0.  1.
</event>
<event>
12    1  0.8297444E-002  0.2401131E+03  0.7818608E-02  0.1120081E+00
         21   -1    0    0  503  502  0.00000000000E+00  0.00000000000E+00  0.11912490480E+03  0.11912490480E+03  0.00000000000E+00 0.  1.
         21   -1    0    0  501  503 -0.00000000000E+00 -0.00000000000E+00 -0.59669454538E+03  0.59669454538E+03  0.00000000000E+00 0.  1.
          6    2    1    2  501    0  0.10421100558E+03 -0.12742458347E+03 -0.39645092650E+03  0.46237412242E+03  0.17181249605E+03 0.  0.
         24    2    3    3    0    0 -0.42902014272E+00 -0.29394114873E+02 -0.85864387570E+02  0.12025485093E+03  0.78894474278E+02 0.  0.
         -6    2    1    2    0  502 -0.10421100558E+03  0.12742458347E+03 -0.81118714078E+02  0.25344532776E+03  0.17480655089E+03 0.  0.
        -24    2    5    5    0    0 -0.21897809890E+02  0.20889153354E+02  0.20784079061E+02  0.84532541674E+02  0.76143954807E+02 0.  0.
          5    1    3    3  501    0  0.10464002573E+03 -0.98030468597E+02 -0.31058653893E+03  0.34211927149E+03  0.47000000000E+01 0. -1.
        -11    1    4    4    0    0  0.33202913808E+02 -0.36860941352E+02 -0.47333232682E+02  0.68568195243E+02  0.00000000000E+00 0.  1.
         12    1    4    4    0    0 -0.33631933951E+02  0.74668264787E+01 -0.38531154887E+02  0.51686655685E+02  0.00000000000E+00 0. -1.
         -5    1    5    5    0  502 -0.82313195693E+02  0.10653543012E+03 -0.10190279314E+03  0.16891278609E+03  0.47000000000E+01 0.  1.
         13    1    6    6    0    0 -0.19037183606E+02 -0.22978815196E+02 -0.93083635643E+01  0.31258373913E+02  0.00000000000E+00 0. -1.
        -14    1    6    6    0    0 -0.28606262842E+01  0.43867968550E+02  0.30092442625E+02  0.53274167761E+02  0.00000000000E+00 0.  1.
</event>
<event>
12    1  0.8297444E-002  0.2167330E+03  0.7818608E-02  0.1136355E+00
         21   -1    0    0  503  502  0.00000000000E+00  0.00000000000E+00  0.10624023442E+04  0.10624023442E+04  0.00000000000E+00 0. -1.
         21   -1    0    0  501  503 -0.00000000000E+00 -0.00000000000E+00 -0.54944122526E+02  0.54944122526E+02  0.00000000000E+00 0. -1.
          6    2    1    2  501    0  0.11763940962E+03  0.61334692874E+02  0.25674611611E+03  0.33599368609E+03  0.17138323636E+03 0.  0.
         24    2    3    3    0    0  0.13043255208E+03  0.19482050862E+02  0.24670011428E+03  0.29084592546E+03  0.79612844562E+02 0.  0.
         -6    2    1    2    0  502 -0.11763940962E+03 -0.61334692874E+02  0.75071210552E+03  0.78135278060E+03  0.17129660571E+03 0.  0.
        -24    2    5    5    0    0 -0.67637961321E+02 -0.10751148166E+03  0.52735252758E+03  0.54780614347E+03  0.76532803313E+02 0.  0.
          5    1    3    3  501    0 -0.12793142454E+02  0.41852642012E+02  0.10046001829E+02  0.45147760631E+02  0.47000000000E+01 0. -1.
        -13    1    4    4    0    0  0.62107656575E+02  0.14742021554E+02  0.19457269667E+03  0.20477603008E+03  0.00000000000E+00 0.  1.
         14    1    4    4    0    0  0.68324895503E+02  0.47400293085E+01  0.52127417613E+02  0.86069895378E+02  0.00000000000E+00 0. -1.
         -5    1    5    5    0  502 -0.50001448303E+02  0.46176788782E+02  0.22335957795E+03  0.23354663713E+03  0.47000000000E+01 0.  1.
         11    1    6    6    0    0 -0.82824117440E+02 -0.93932378788E+02  0.41002864564E+03  0.42872673868E+03  0.00000000000E+00 0. -1.
        -12    1    6    6    0    0  0.15186156119E+02 -0.13579102868E+02  0.11732388194E+03  0.11907940479E+03  0.00000000000E+00 0.  1.
</event>
<event>
12    1  0.8297444E-002  0.1953103E+03  0.7818608E-02  0.1153842E+00
         21   -1    0    0  503  502  0.00000000000E+00  0.00000000000E+00  0.24650820905E+03  0.24650820905E+03  0.00000000000E+00 0.  1.
         21   -1    0    0  501  503 -0.00000000000E+00 -0.00000000000E+00 -0.15782896964E+03  0.15782896964E+03  0.00000000000E+00 0. -1.
          6    2    1    2  501    0  0.59722093240E+02 -0.71798453759E+02  0.14753219716E+02  0.19586669730E+03  0.17153530026E+03 0.  0.
         24    2    3    3    0    0  0.37273921237E+01 -0.93709738376E+02  0.42478180886E+02  0.12948692313E+03  0.78530623915E+02 0.  0.
         -6    2    1    2    0  502 -0.59722093240E+02  0.71798453759E+02  0.73926019687E+02  0.20847048139E+03  0.17109394741E+03 0.  0.
        -24    2    5    5    0    0  0.32718885962E+02  0.34929105689E+02  0.18340173291E+02  0.94380342541E+02  0.79250988505E+02 0.  0.
          5    1    3    3  501    0  0.55994701117E+02  0.21911284616E+02 -0.27724961170E+02  0.66379774168E+02  0.47000000000E+01 0. -1.
        -13    1    4    4    0    0  0.35889020901E+02 -0.43112095142E+02  0.41058553336E+02  0.69516036789E+02  0.00000000000E+00 0.  1.
         14    1    4    4    0    0 -0.32161628778E+02 -0.50597643234E+02  0.14196275504E+01  0.59970886344E+02  0.00000000000E+00 0. -1.
         -5    1    5    5    0  502 -0.92440979202E+02  0.36869348070E+02  0.55585846396E+02  0.11409013885E+03  0.47000000000E+01 0.  1.
         13    1    6    6    0    0 -0.23922612995E+02  0.11850916794E+02  0.19738832320E+02  0.33201764151E+02  0.00000000000E+00 0. -1.
        -14    1    6    6    0    0  0.56641498957E+02  0.23078188895E+02 -0.13986590291E+01  0.61178578391E+02  0.00000000000E+00 0.  1.
</event>
<event>
12    1  0.8297444E-002  0.1748846E+03  0.7818608E-02  0.1173097E+00
         21   -1    0    0  501  502  0.00000000000E+00  0.00000000000E+00  0.10842265561E+03  0.10842265561E+03  0.00000000000E+00 0. -1.
         21   -1    0    0  502  503 -0.00000000000E+00 -0.00000000000E+00 -0.46046817428E+03  0.46046817428E+03  0.00000000000E+00 0. -1.
         -6    2    1    2    0  503 -0.28976523005E+02 -0.64896660133E+01 -0.35354794697E+03  0.39399976138E+03  0.17134149093E+03 0.  0.
        -24    2    3    3    0    0  0.26284830207E+02  0.26210417189E+02 -0.29970141526E+03  0.31006733870E+03  0.70306030682E+02 0.  0.
          6    2    1    2  501    0  0.28976523005E+02  0.64896660133E+01  0.15024282892E+01  0.17489106851E+03  0.17234521723E+03 0.  0.
         24    2    5    5    0    0  0.47266409534E+01  0.31483397628E+02  0.60570257566E+02  0.10616085787E+03  0.81165424784E+02 0.  0.
          5    1    5    5  501    0  0.24249882052E+02 -0.24993731615E+02 -0.59067829277E+02  0.68730210643E+02  0.47000000000E+01 0. -1.
        -11    1    6    6    0    0  0.29433845330E+02  0.47233737012E+02  0.50578755624E+02  0.75203641424E+02  0.00000000000E+00 0.  1.
         12    1    6    6    0    0 -0.24707204376E+02 -0.15750339384E+02  0.99915019423E+01  0.30957216442E+02  0.00000000000E+00 0. -1.
         -5    1    3    3    0  503 -0.55261353212E+02 -0.32700083203E+02 -0.53846531706E+02  0.83932422681E+02  0.47000000000E+01 0.  1.
         11    1    4    4    0    0  0.17225683424E+02  0.54422800201E+01 -0.12487034281E+02  0.21960614891E+02  0.00000000000E+00 0. -1.
        -12    1    4    4    0    0  0.90591467828E+01  0.20768137169E+02 -0.28721438098E+03  0.28810672381E+03  0.00000000000E+00 0.  1.
</event>
<event>
12    1  0.8297444E-002  0.1955376E+03  0.7818608E-02  0.1154111E+00
         21   -1    0    0  503  502  0.00000000000E+00  0.00000000000E+00  0.10396709518E+03  0.10396709518E+03  0.00000000000E+00 0. -1.
         21   -1    0    0  501  503 -0.00000000000E+00 -0.00000000000E+00 -0.36998796564E+03  0.36998796564E+03  0.00000000000E+00 0. -1.
          6    2    1    2  501    0  0.29737277376E+02  0.83106112503E+02 -0.99675557349E+02  0.21723400523E+03  0.17165216193E+03 0.  0.
         24    2    3    3    0    0  0.39748495404E+02 -0.70099443507E+01 -0.87971759746E+02  0.12569058893E+03  0.80187352039E+02 0.  0.
         -6    2    1    2    0  502 -0.29737277376E+02 -0.83106112503E+02 -0.16634531312E+03  0.25672105559E+03  0.17448210678E+03 0.  0.
        -24    2    5    5    0    0 -0.49104017868E+02 -0.10403564922E+03 -0.17763222284E+03  0.22569525220E+03  0.78425247190E+02 0.  0.
          5    1    3    3  501    0 -0.10011218029E+02  0.90116056854E+02 -0.11703797603E+02  0.91543416299E+02  0.47000000000E+01 0. -1.
        -13    1    4    4    0    0  0.61003474145E+02 -0.20670406522E+02 -0.65758370621E+02  0.92048100851E+02  0.00000000000E+00 0.  1.
         14    1    4    4    0    0 -0.21254978741E+02  0.13660462171E+02 -0.22213389125E+02  0.33642488083E+02  0.00000000000E+00 0. -1.
         -5    1    5    5    0  502  0.19366740493E+02  0.20929536716E+02  0.11286909725E+02  0.31025803384E+02  0.47000000000E+01 0.  1.
         11    1    6    6    0    0 -0.12823262173E+02 -0.21902159085E+02 -0.11104771002E+03  0.11391108167E+03  0.00000000000E+00 0. -1.
        -12    1    6    6    0    0 -0.36280755695E+02 -0.82133490134E+02 -0.66584512819E+02  0.11178417054E+03  0.00000000000E+00 0.  1.
</event>
<event>
12    1  0.8297444E-002  0.1962430E+03  0.7818608E-02  0.1154961E+00
         21   -1    0    0  501  502  0.00000000000E+00  0.00000000000E+00  0.35039219713E+03  0.35039219713E+03  0.00000000000E+00 0. -1.
         21   -1    0    0  502  503 -0.00000000000E+00 -0.00000000000E+00 -0.10921391662E+03  0.10921391662E+03  0.00000000000E+00 0.  1.
         -6    2    1    2    0  503 -0.93002524514E+02  0.10148384786E+02  0.72095836514E+02  0.20056904125E+03  0.16210389071E+03 0.  0.
        -24    2    3    3    0    0  0.15727559093E+00  0.16666617719E+02  0.70129133900E+02  0.10704260843E+03  0.79134213309E+02 0.  0.
          6    2    1    2  501    0  0.93002524514E+02 -0.10148384786E+02  0.16908244400E+03  0.25903707250E+03  0.17250760210E+03 0.  0.
         24    2    5    5    0    0  0.97238732703E+02 -0.90926030746E+01  0.42293123055E+02  0.13208557767E+03  0.78229438206E+02 0.  0.
          5    1    5    5  501    0 -0.42362081890E+01 -0.10557817109E+01  0.12678932094E+03  0.12695149483E+03  0.47000000000E+01 0. -1.
        -13    1    6    6    0    0  0.62590299384E+02 -0.32902107763E+02 -0.23670372962E+01  0.70750951498E+02  0.00000000000E+00 0.  1.
         14    1    6    6    0    0  0.34648433318E+02  0.23809504689E+02  0.44660160351E+02  0.61334626171E+02  0.00000000000E+00 0. -1.
         -5    1    3    3    0  503 -0.93159800105E+02 -0.65182329331E+01  0.19667026144E+01  0.93526432816E+02  0.47000000000E+01 0.  1.
         13    1    4    4    0    0 -0.38962447049E+02  0.14161605012E+02  0.32148162486E+02  0.52460725193E+02  0.00000000000E+00 0. -1.
        -14    1    4    4    0    0  0.39119722640E+02  0.25050127068E+01  0.37980971414E+02  0.54581883236E+02  0.00000000000E+00 0.  1.
</event>
<event>
12    1  0.8297444E-002  0.1754895E+03  0.7818608E-02  0.1172291E+00
         21   -1    0    0  503  502  0.00000000000E+00  0.00000000000E+00  0.25772263308E+03  0.25772263308E+03  0.00000000000E+00 0.  1.
         21   -1    0    0  501  503 -0.00000000000E+00 -0.00000000000E+00 -0.20300534040E+03  0.20300534040E+03  0.00000000000E+00 0.  1.
          6    2    1    2  501    0  0.16550896832E+02  0.27397033308E+02 -0.12050415353E+03  0.21287984143E+03  0.17254578016E+03 0.  0.
         24    2    3    3    0    0  0.16412443553E+02 -0.40516385823E+02 -0.23109232424E+02  0.94051762576E+02  0.80004697342E+02 0.  0.
         -6    2    1    2    0  502 -0.16550896832E+02 -0.27397033308E+02  0.17522144621E+03  0.24784813205E+03  0.17234155543E+03 0.  0.
        -24    2    5    5    0    0 -0.24421572004E+02 -0.27723418866E+02  0.17783560077E+02  0.90143242950E+02  0.80277942846E+02 0.  0.
          5    1    3    3  501    0  0.13845327917E+00  0.67913419131E+02 -0.97394921106E+02  0.11882807886E+03  0.47000000000E+01 0. -1.
        -13    1    4    4    0    0 -0.62552467844E+01  0.17743576755E+02 -0.25264646479E+02  0.31500237937E+02  0.00000000000E+00 0.  1.
         14    1    4    4    0    0  0.22667690338E+02 -0.58259962579E+02  0.21554140543E+01  0.62551524639E+02  0.00000000000E+00 0. -1.
         -5    1    5    5    0  502  0.78706751720E+01  0.32638555820E+00  0.15743788614E+03  0.15770488910E+03  0.47000000000E+01 0.  1.
         11    1    6    6    0    0  0.19926285302E+02 -0.30998951502E+02  0.25764010366E+02  0.44964164290E+02  0.00000000000E+00 0. -1.
        -12    1    6    6    0    0 -0.44347857306E+02  0.32755326364E+01 -0.79804502893E+01  0.45179078659E+02  0.00000000000E+00 0.  1.
</event>
<event>
12    1  0.8297444E-002  0.1805152E+03  0.7818608E-02  0.1169168E+00
         21   -1    0    0  501  502  0.00000000000E+00  0.00000000000E+00  0.32563583715E+03  0.32563583715E+03  0.00000000000E+00 0.  1.
         21   -1    0    0  502  503 -0.00000000000E+00 -0.00000000000E+00 -0.19598747578E+03  0.19598747578E+03  0.00000000000E+00 0.  1.
         -6    2    1    2    0  503 -0.12400031900E+02  0.53700725974E+02 -0.12218967169E+03  0.21177153159E+03  0.16394919019E+03 0.  0.
        -24    2    3    3    0    0  0.19044245458E+02 -0.25002283204E+02 -0.80223906649E+02  0.11708192462E+03  0.79274866289E+02 0.  0.
          6    2    1    2  501    0  0.12400031900E+02 -0.53700725974E+02  0.25183803306E+03  0.30985178134E+03  0.17189590670E+03 0.  0.
         24    2    5    5    0    0  0.66835055658E+02 -0.67710786747E+02  0.19898859081E+03  0.23255619828E+03  0.73717370940E+02 0.  0.
          5    1    5    5  501    0 -0.54435023759E+02  0.14010060772E+02  0.52849442249E+02  0.77295583059E+02  0.47000000000E+01 0. -1.
        -13    1    6    6    0    0  0.72223894850E+02 -0.50924234048E+02  0.10644293052E+03  0.13834618195E+03  0.00000000000E+00 0.  1.
         14    1    6    6    0    0 -0.53888391917E+01 -0.16786552699E+02  0.92545660289E+02  0.94210016334E+02  0.00000000000E+00 0. -1.
         -5    1    3    3    0  503 -0.31444277358E+02  0.78703009178E+02 -0.41965765044E+02  0.94689606969E+02  0.47000000000E+01 0.  1.
         11    1    4    4    0    0  0.43758265666E+02 -0.15895726647E+02 -0.18725424924E+02  0.50180688301E+02  0.00000000000E+00 0. -1.
        -12    1    4    4    0    0 -0.24714020208E+02 -0.91065565565E+01 -0.61498481725E+02  0.66901236323E+02  0.00000000000E+00 0.  1.
</event>
<event>
12    1  0.8297444E-002  0.1868600E+03  0.7818608E-02  0.1161527E+00
         21   -1    0    0  501  502  0.00000000000E+00  0.00000000000E+00  0.59280950712E+03  0.59280950712E+03  0.00000000000E+00 0. -1.
         21   -1    0    0  502  503 -0.00000000000E+00 -0.00000000000E+00 -0.72941687330E+02  0.72941687330E+02  0.00000000000E+00 0. -1.
         -6    2    1    2    0  503 -0.18660099752E+02  0.69286112275E+02  0.11196754952E+03  0.21708731264E+03  0.17158497745E+03 0.  0.
        -24    2    3    3    0    0 -0.76283488932E+02  0.40883315096E+02  0.67279310323E+02  0.13868895430E+03  0.84955896264E+02 0.  0.
          6    2    1    2  501    0  0.18660099752E+02 -0.69286112275E+02  0.40790027026E+03  0.44866388180E+03  0.17253371751E+03 0.  0.
         24    2    5    5    0    0 -0.78429185282E+01 -0.10567267464E+03  0.35642892361E+03  0.38012351833E+03  0.78892877174E+02 0.  0.
          5    1    5    5  501    0  0.26503018280E+02  0.36386562362E+02  0.51471346655E+02  0.68540363472E+02  0.47000000000E+01 0. -1.
        -11    1    6    6    0    0  0.22459423245E+02 -0.67439484142E+00  0.50931485925E+02  0.55667735354E+02  0.00000000000E+00 0.  1.
         12    1    6    6    0    0 -0.30302341774E+02 -0.10499827980E+03  0.30549743768E+03  0.32445578298E+03  0.00000000000E+00 0. -1.
         -5    1    3    3    0  503  0.57623389179E+02  0.28402797179E+02  0.44688239200E+02  0.78398358343E+02  0.47000000000E+01 0.  1.
         11    1    4    4    0    0  0.69699634529E+01 -0.10924197021E+02 -0.78577379671E+01  0.15154620320E+02  0.00000000000E+00 0. -1.
        -12    1    4    4    0    0 -0.83253452384E+02  0.51807512117E+02  0.75137048290E+02  0.12353433398E+03  0.00000000000E+00 0.  1.
</event>
<event>
12    1  0.8297444E-002  0.1814042E+03  0.7818608E-02  0.1167523E+00
         21   -1    0    0  503  502  0.00000000000E+00  0.00000000000E+00  0.85688721755E+03  0.85688721755E+03  0.00000000000E+00 0. -1.
         21   -1    0    0  501  503 -0.00000000000E+00 -0.00000000000E+00 -0.50044913980E+02  0.50044913980E+02  0.00000000000E+00 0. -1.
          6    2    1    2  501    0 -0.34752379262E+02  0.45040218512E+02  0.17988383173E+03  0.25547148447E+03  0.17225311990E+03 0.  0.
         24    2    3    3    0    0 -0.18651805355E+02 -0.43033567121E+02  0.62281260006E+02  0.10759087360E+03  0.74142180928E+02 0.  0.
         -6    2    1    2    0  502  0.34752379262E+02 -0.45040218512E+02  0.62695847184E+03  0.65146064706E+03  0.16759385459E+03 0.  0.
        -24    2    5    5    0    0 -0.16530076350E+02  0.85401311308E+01  0.17481171918E+03  0.19324724692E+03  0.80244526385E+02 0.  0.
          5    1    3    3  501    0 -0.16100573907E+02  0.88073785634E+02  0.11760257172E+03  0.14788061087E+03  0.47000000000E+01 0. -1.
        -11    1    4    4    0    0 -0.18259725537E+02 -0.48791027052E+02  0.76324060056E+02  0.92408571252E+02  0.00000000000E+00 0.  1.
         12    1    4    4    0    0 -0.39207981853E+00  0.57574599304E+01 -0.14042800051E+02  0.15182302352E+02  0.00000000000E+00 0. -1.
         -5    1    5    5    0  502  0.51282455612E+02 -0.53580349643E+02  0.45214675266E+03  0.45821340014E+03  0.47000000000E+01 0.  1.
         13    1    6    6    0    0 -0.31726630584E+02 -0.22691342112E+02  0.13447390164E+03  0.14001680727E+03  0.00000000000E+00 0. -1.
        -14    1    6    6    0    0  0.15196554234E+02  0.31231473242E+02  0.40337817538E+02  0.53230439649E+02  0.00000000000E+00 0.  1.
</event>
<event>
12    1  0.8297444E-002  0.2071130E+03  0.7818608E-02  0.1143924E+00
         21   -1    0    0  501  502  0.00000000000E+00  0.00000000000E+00  0.70155669155E+02  0.70155669155E+02  0.00000000000E+00 0. -1.
         21   -1    0    0  502  503 -0.00000000000E+00 -0.00000000000E+00 -0.77868999987E+03  0.77868999987E+03  0.00000000000E+00 0. -1.
         -6    2    1    2    0  503  0.11436521593E+03 -0.40734976266E+00 -0.15696210957E+03  0.25967022384E+03  0.17237155438E+03 0.  0.
        -24    2    3    3    0    0  0.48659267324E+02 -0.48580293021E+00  0.17879120115E+02  0.72831193025E+02  0.51154270989E+02 0.  0.
          6    2    1    2  501    0 -0.11436521593E+03  0.40734976266E+00 -0.55157222115E+03  0.58917544519E+03  0.17267374302E+03 0.  0.
         24    2    5    5    0    0 -0.13646114421E+03 -0.38324446338E+02 -0.43865812549E+03  0.46768443699E+03  0.78850329606E+02 0.  0.
          5    1    5    5  501    0  0.22095928279E+02  0.38731796101E+02 -0.11291409566E+03  0.12149100820E+03  0.47000000000E+01 0. -1.
        -13    1    6    6    0    0 -0.10700759858E+03 -0.33123476817E+02 -0.21886029381E+03  0.24586097510E+03  0.00000000000E+00 0.  1.
         14    1    6    6    0    0 -0.29453545626E+02 -0.52009695209E+01 -0.21979783167E+03  0.22182346188E+03  0.00000000000E+00 0. -1.
         -5    1    3    3    0  503  0.65705948603E+02  0.78453167543E-01 -0.17484122968E+03  0.18683903081E+03  0.47000000000E+01 0.  1.
         13    1    4    4    0    0  0.58918173190E+02  0.40917298198E+01  0.12466748282E+02  0.60361520837E+02  0.00000000000E+00 0. -1.
        -14    1    4    4    0    0 -0.10258905866E+02 -0.45775327501E+01  0.54123718322E+01  0.12469672189E+02  0.00000000000E+00 0.  1.
</event>
<event>
12    1  0.8297444E-002  0.1801374E+03  0.7818608E-02  0.1167823E+00
         21   -1    0    0  501  502  0.00000000000E+00  0.00000000000E+00  0.63503347900E+02  0.63503347900E+02  0.00000000000E+00 0.  1.
         21   -1    0    0  502  503 -0.00000000000E+00 -0.00000000000E+00 -0.79260434373E+03  0.79260434373E+03  0.00000000000E+00 0.  1.
         -6    2    1    2    0  503 -0.12425886266E+02 -0.32328334112E+02 -0.10900100818E+03  0.21054858101E+03  0.17677658596E+03 0.  0.
        -24    2    3    3    0    0 -0.40361046242E+02  0.87016117100E+01  0.14066620885E+01  0.89404975022E+02  0.79287696148E+02 0.  0.
          6    2    1    2  501    0  0.12425886266E+02  0.32328334112E+02 -0.62009998765E+03  0.64555911062E+03  0.17613360493E+03 0.  0.
         24    2    5    5    0    0  0.67774761575E+02  0.56087256350E+02 -0.38766785260E+03  0.40540338659E+03  0.79538313303E+02 0.  0.
          5    1    5    5  501    0 -0.55348875309E+02 -0.23758922238E+02 -0.23243213505E+03  0.24015572404E+03  0.47000000000E+01 0. -1.
        -11    1    6    6    0    0 -0.95389926799E+01  0.33920891391E+02 -0.16322071877E+03  0.16698090397E+03  0.00000000000E+00 0.  1.
         12    1    6    6    0    0  0.77313754255E+02  0.22166364959E+02 -0.22444713383E+03  0.23842248262E+03  0.00000000000E+00 0. -1.
         -5    1    3    3    0  503  0.27935159976E+02 -0.41029945822E+02 -0.11040767027E+03  0.12114360598E+03  0.47000000000E+01 0.  1.
         13    1    4    4    0    0 -0.12189856794E+02  0.26667918865E+02 -0.31131852994E+02  0.42766374363E+02  0.00000000000E+00 0. -1.
        -14    1    4    4    0    0 -0.28171189448E+02 -0.17966307155E+02  0.32538515083E+02  0.46638600660E+02  0.00000000000E+00 0.  1.
</event>
<event>
12    1  0.8297444E-002  0.1847511E+03  0.7818608E-02  0.1163295E+00
         21   -1    0    0  503  502  0.00000000000E+00  0.00000000000E+00  0.45864775995E+02  0.45864775995E+02  0.00000000000E+00 0.  1.
         21   -1    0    0  501  503 -0.00000000000E+00 -0.00000000000E+00 -0.76757709948E+03  0.76757709948E+03  0.00000000000E+00 0.  1.
          6    2    1    2  501    0  0.63515983436E+01  0.65981169814E+02 -0.28961269854E+03  0.34352365488E+03  0.17245036600E+03 0.  0.
         24    2    3    3    0    0 -0.72621082769E+01  0.61267022070E+02 -0.68185141383E+02  0.12157814520E+03  0.79533927822E+02 0.  0.
         -6    2    1    2    0  502 -0.63515983436E+01 -0.65981169814E+02 -0.43209962494E+03  0.46991822060E+03  0.17239254799E+03 0.  0.
        -24    2    5    5    0    0 -0.43757044032E+02  0.14310603973E+02 -0.17386976369E+03  0.19687850270E+03  0.80068581930E+02 0.  0.
          5    1    3    3  501    0  0.13613706620E+02  0.47141477435E+01 -0.22142755716E+03  0.22194550968E+03  0.47000000000E+01 0. -1.
        -13    1    4    4    0    0  0.35362028156E+02  0.33936772636E+02 -0.24950010667E+02  0.54997096329E+02  0.00000000000E+00 0.  1.
         14    1    4    4    0    0 -0.42624136433E+02  0.27330249434E+02 -0.43235130715E+02  0.66581048871E+02  0.00000000000E+00 0. -1.
         -5    1    5    5    0  502  0.37405445689E+02 -0.80291773786E+02 -0.25822986126E+03  0.27303971790E+03  0.47000000000E+01 0.  1.
         13    1    6    6    0    0  0.18660494177E+02  0.27782083910E+01 -0.10455336159E+02  0.21569574381E+02  0.00000000000E+00 0. -1.
        -14    1    6    6    0    0 -0.62417538209E+02  0.11532395582E+02 -0.16341442753E+03  0.17530892832E+03  0.00000000000E+00 0.  1.
</event>
<event>
12    1  0.8297444E-002  0.2404011E+03  0.7818608E-02  0.1120016E+00
         21   -1    0    0  501  502  0.00000000000E+00  0.00000000000E+00  0.19524447243E+03  0.19524447243E+03  0.00000000000E+00 0. -1.
         21   -1    0    0  502  503 -0.00000000000E+00 -0.00000000000E+00 -0.32895433851E+03  0.32895433851E+03  0.00000000000E+00 0. -1.
         -6    2    1    2    0  503 -0.11730967131E+03  0.11426489288E+03 -0.15385444820E+03  0.28295520404E+03  0.17197218244E+03 0.  0.
        -24    2    3    3    0    0 -0.13380625232E+02  0.55450087423E+02 -0.16583233632E+02  0.10094997250E+03  0.81621933221E+02 0.  0.
          6    2    1    2  501    0  0.11730967131E+03 -0.11426489288E+03  0.20144582117E+02  0.24124360691E+03  0.17599616177E+03 0.  0.
         24    2    5    5    0    0  0.13492847174E+03 -0.37466987859E+02  0.15767507509E+02  0.16218926404E+03  0.80294927681E+02 0.  0.
          5    1    5    5  501    0 -0.17618800430E+02 -0.76797905025E+02  0.43770746083E+01  0.79054342872E+02  0.47000000000E+01 0. -1.
        -11    1    6    6    0    0  0.75175059336E+02 -0.14499600595E+02 -0.31321829504E+02  0.82719918804E+02  0.00000000000E+00 0.  1.
         12    1    6    6    0    0  0.59753412403E+02 -0.22967387264E+02  0.47089337013E+02  0.79469345233E+02  0.00000000000E+00 0. -1.
         -5    1    3    3    0  503 -0.10392904608E+03  0.58814805461E+02 -0.13727121456E+03  0.18200523154E+03  0.47000000000E+01 0.  1.
         13    1    4    4    0    0 -0.40531191038E+02  0.31905138602E+01 -0.80006215015E+01  0.41436297736E+02  0.00000000000E+00 0. -1.
        -14    1    4    4    0    0  0.27150565806E+02  0.52259573562E+02 -0.85826121301E+01  0.59513674761E+02  0.00000000000E+00 0.  1.
</event>
<event>
12    1  0.8297444E-002  0.2823683E+03  0.7818608E-02  0.1094544E+00
         21   -1    0    0  503  502  0.00000000000E+00  0.00000000000E+00  0.40810753185E+02  0.40810753185E+02  0.00000000000E+00 0.  1.
         21   -1    0    0  501  503 -0.00000000000E+00 -0.00000000000E+00 -0.20813293399E+04  0.20813293399E+04  0.00000000000E+00 0.  1.
          6    2    1    2  501    0 -0.11020121061E+03 -0.19563646011E+03 -0.75191525718E+03  0.80318642215E+03  0.17121315196E+03 0.  0.
         24    2    3    3    0    0 -0.12159305461E+03 -0.21316307528E+03 -0.65262852107E+03  0.70161426889E+03  0.78199924610E+02 0.  0.
         -6    2    1    2    0  502  0.11020121061E+03  0.19563646011E+03 -0.12886033295E+04  0.13189536709E+04  0.16947658788E+03 0.  0.
        -24    2    5    5    0    0  0.99457131833E+01  0.13554127236E+03 -0.87859492410E+03  0.89258343407E+03  0.79409019637E+02 0.  0.
          5    1    3    3  501    0  0.11391844000E+02  0.17526615179E+02 -0.99286736109E+02  0.10157215325E+03  0.47000000000E+01 0. -1.
        -13    1    4    4    0    0 -0.52252223456E+02 -0.13427006656E+03 -0.28607096748E+03  0.32030507967E+03  0.00000000000E+00 0.  1.
         14    1    4    4    0    0 -0.69340831157E+02 -0.78893008728E+02 -0.36655755359E+03  0.38130918923E+03  0.00000000000E+00 0. -1.
         -5    1    5    5    0  502  0.10025549743E+03  0.60095187748E+02 -0.41000840540E+03  0.42637023683E+03  0.47000000000E+01 0.  1.
         13    1    6    6    0    0  0.27494225515E+02  0.21922264897E+02 -0.34246161006E+03  0.34426221474E+03  0.00000000000E+00 0. -1.
        -14    1    6    6    0    0 -0.17548512331E+02  0.11361900746E+03 -0.53613331404E+03  0.54832121933E+03  0.00000000000E+00 0.  1.
</event>
<event>
12    1  0.8297444E-002  0.1721238E+03  0.7818608E-02  0.1175750E+00
         21   -1    0    0  503  502  0.00000000000E+00  0.00000000000E+00  0.10761917037E+03  0.10761917037E+03  0.00000000000E+00 0. -1.
         21   -1    0    0  501  503 -0.00000000000E+00 -0.00000000000E+00 -0.33114914723E+03  0.33114914723E+03  0.00000000000E+00 0. -1.
          6    2    1    2  501    0  0.44786990084E+01  0.29394184614E+01 -0.20225828010E+03  0.26533511454E+03  0.17165550447E+03 0.  0.
         24    2    3    3    0    0 -0.61587618486E+02  0.10907599217E+02 -0.98940138471E+02  0.14235146278E+03  0.81010971370E+02 0.  0.
         -6    2    1    2    0  502 -0.44786990084E+01 -0.29394184614E+01 -0.21271696772E+02  0.17343320306E+03  0.17204037873E+03 0.  0.
        -24    2    5    5    0    0 -0.59186548082E+02  0.22351753998E+02 -0.34402931459E+02  0.11156955074E+03  0.85214755634E+02 0.  0.
          5    1    3    3  501    0  0.66066317495E+02 -0.79681807553E+01 -0.10331814162E+03  0.12298365176E+03  0.47000000000E+01 0. -1.
        -13    1    4    4    0    0 -0.48458724649E+02 -0.26477437285E+02 -0.82892994887E+02  0.99601964243E+02  0.00000000000E+00 0.  1.
         14    1    4    4    0    0 -0.13128893837E+02  0.37385036502E+02 -0.16047143585E+02  0.42749498533E+02  0.00000000000E+00 0. -1.
         -5    1    5    5    0  502  0.54707849074E+02 -0.25291172460E+02  0.13131234688E+02  0.61863652326E+02  0.47000000000E+01 0.  1.
         11    1    6    6    0    0 -0.59340300649E+02  0.32419639028E+02 -0.55963496596E+02  0.87773670466E+02  0.00000000000E+00 0. -1.
        -12    1    6    6    0    0  0.15375256645E+00 -0.10067885030E+02  0.21560565137E+02  0.23795880270E+02  0.00000000000E+00 0.  1.
</event>
<event>
12    1  0.8297444E-002  0.1842348E+03  0.7818608E-02  0.1163779E+00
         21   -1    0    0  503  502  0.00000000000E+00  0.00000000000E+00  0.45929832978E+03  0.45929832978E+03  0.00000000000E+00 0. -1.
         21   -1    0    0  501  503 -0.00000000000E+00 -0.00000000000E+00 -0.67051213473E+03  0.67051213473E+03  0.00000000000E+00 0. -1.
          6    2    1    2  501    0 -0.39613934862E+02 -0.51267991297E+02 -0.63848424406E+03  0.66453336315E+03  0.17246677958E+03 0.  0.
         24    2    3    3    0    0  0.44130111844E+02 -0.28778333299E+02 -0.35724337227E+03  0.37019109972E+03  0.81504380508E+02 0.  0.
         -6    2    1    2    0  502  0.39613934862E+02  0.51267991297E+02  0.42727043911E+03  0.46527710135E+03  0.17240963470E+03 0.  0.
        -24    2    5    5    0    0  0.44934145326E+02  0.12580065806E+02  0.41533594711E+03  0.42417257219E+03  0.72395349075E+02 0.  0.
          5    1    3    3  501    0 -0.83744046706E+02 -0.22489657997E+02 -0.28124087180E+03  0.29434226344E+03  0.47000000000E+01 0. -1.
        -13    1    4    4    0    0  0.80124895730E+01  0.27000643473E+02 -0.14777290197E+03  0.15043292623E+03  0.00000000000E+00 0.  1.
         14    1    4    4    0    0  0.36117622271E+02 -0.55778976773E+02 -0.20947047030E+03  0.21975817349E+03  0.00000000000E+00 0. -1.
         -5    1    5    5    0  502 -0.53202104634E+01  0.38687925490E+02  0.11934492004E+02  0.41104529161E+02  0.47000000000E+01 0.  1.
         11    1    6    6    0    0  0.30498898256E+02  0.22731611127E+02  0.39665296242E+03  0.39847268606E+03  0.00000000000E+00 0. -1.
        -12    1    6    6    0    0  0.14435247069E+02 -0.10151545321E+02  0.18682984691E+02  0.25699886134E+02  0.00000000000E+00 0.  1.
</event>
<event>
12    1  0.8297444E-002  0.1849497E+03  0.7818608E-02  0.1163182E+00
         21   -1    0    0  503  502  0.00000000000E+00  0.00000000000E+00  0.49446889898E+03  0.49446889898E+03  0.00000000000E+00 0.  1.
         21   -1    0    0  501  503 -0.00000000000E+00 -0.00000000000E+00 -0.86497843165E+02  0.86497843165E+02  0.00000000000E+00 0. -1.
          6    2    1    2  501    0 -0.47478720371E+02  0.50600459344E+02  0.33463940986E+03  0.38234792423E+03  0.17144026702E+03 0.  0.
         24    2    3    3    0    0  0.33136574824E+02  0.92195071272E+01  0.22028773443E+03  0.23636982759E+03  0.78491894801E+02 0.  0.
         -6    2    1    2    0  502  0.47478720371E+02 -0.50600459344E+02  0.73331645953E+02  0.19861881791E+03  0.17104756402E+03 0.  0.
        -24    2    5    5    0    0  0.91592829420E+01 -0.77889149868E+02  0.96011691784E+02  0.14618289135E+03  0.77463414809E+02 0.  0.
          5    1    3    3  501    0 -0.80615295195E+02  0.41380952217E+02  0.11435167542E+03  0.14597809664E+03  0.47000000000E+01 0. -1.
        -13    1    4    4    0    0  0.40775882070E+02  0.30221408245E+02  0.19947664203E+03  0.20583230260E+03  0.00000000000E+00 0.  1.
         14    1    4    4    0    0 -0.76393072468E+01 -0.21001901118E+02  0.20811092401E+02  0.30537524993E+02  0.00000000000E+00 0. -1.
         -5    1    5    5    0  502  0.38319437429E+02  0.27288690525E+02 -0.22680045831E+02  0.52435926561E+02  0.47000000000E+01 0.  1.
         13    1    6    6    0    0  0.41486721486E+01 -0.80726658140E+02  0.40569989267E+02  0.90442959063E+02  0.00000000000E+00 0. -1.
        -14    1    6    6    0    0  0.50106107934E+01  0.28375082710E+01  0.55441702517E+02  0.55739932290E+02  0.00000000000E+00 0.  1.
</event>
<event>
12    1  0.8297444E-002  0.1869622E+03  0.7818608E-02  0.1161252E+00
         21   -1    0    0  503  502  0.00000000000E+00  0.00000000000E+00  0.10680855956E+04  0.10680855956E+04  0.00000000000E+00 0.  1.
         21   -1    0    0  501  503 -0.00000000000E+00 -0.00000000000E+00 -0.67930899825E+02  0.67930899825E+02  0.00000000000E+00 0.  1.
          6    2    1    2  501    0  0.84349049411E-01 -0.71190111527E+02  0.91020422817E+02  0.20785703462E+03  0.17277670669E+03 0.  0.
         24    2    3    3    0    0 -0.15338403511E+02 -0.10175484603E+03  0.10786985003E+03  0.16941152136E+03  0.80467656300E+02 0.  0.
         -6    2    1    2    0  502 -0.84349049411E-01  0.71190111527E+02  0.90913427293E+03  0.92815946078E+03  0.17287804755E+03 0.  0.
        -24    2    5    5    0    0 -0.55212477655E+02  0.78275303851E+02  0.72836061460E+03  0.73897564525E+03  0.80002365498E+02 0.  0.
          5    1    3    3  501    0  0.15422752560E+02  0.30564734505E+02 -0.16849427216E+02  0.38445513255E+02  0.47000000000E+01 0. -1.
        -13    1    4    4    0    0 -0.37489210840E+02 -0.56281844129E+02  0.24555284373E+02  0.71944762830E+02  0.00000000000E+00 0.  1.
         14    1    4    4    0    0  0.22150807330E+02 -0.45473001903E+02  0.83314565660E+02  0.97466758531E+02  0.00000000000E+00 0. -1.
         -5    1    5    5    0  502  0.55128128606E+02 -0.70851923238E+01  0.18077365833E+03  0.18918381553E+03  0.47000000000E+01 0.  1.
         13    1    6    6    0    0  0.80929650966E+01  0.49852185180E+01  0.28511688321E+03  0.28527528035E+03  0.00000000000E+00 0. -1.
        -14    1    6    6    0    0 -0.63305442752E+02  0.73290085333E+02  0.44324373139E+03  0.45370036489E+03  0.00000000000E+00 0.  1.
</event>
<event>
12    1  0.8297444E-002  0.2125301E+03  0.7818608E-02  0.1139708E+00
         21   -1    0    0  501  502  0.00000000000E+00  0.00000000000E+00  0.13843671843E+04  0.13843671843E+04  0.00000000000E+00 0. -1.
         21   -1    0    0  502  503 -0.00000000000E+00 -0.00000000000E+00 -0.64231632623E+02  0.64231632623E+02  0.00000000000E+00 0. -1.
         -6    2    1    2    0  503 -0.10308716314E+03  0.70216279367E+02  0.15171389871E+03  0.26112475264E+03  0.17208062147E+03 0.  0.
        -24    2    3    3    0    0  0.13791615719E+02  0.45920878045E+02  0.72808365608E+02  0.11794972469E+03  0.79449000924E+02 0.  0.
          6    2    1    2  501    0  0.10308716314E+03 -0.70216279367E+02  0.11684216530E+04  0.11874740643E+04  0.17125479598E+03 0.  0.
         24    2    5    5    0    0  0.14515268748E+02  0.18238498593E+02  0.36735179823E+03  0.37666938350E+03  0.79932127125E+02 0.  0.
          5    1    5    5  501    0  0.88571894391E+02 -0.88454777960E+02  0.80106985478E+03  0.81080468083E+03  0.47000000000E+01 0. -1.
        -13    1    6    6    0    0  0.21323555222E+02  0.46960514977E+02  0.27224472246E+03  0.27708694102E+03  0.00000000000E+00 0.  1.
         14    1    6    6    0    0 -0.68082864735E+01 -0.28722016384E+02  0.95107075771E+02  0.99582442487E+02  0.00000000000E+00 0. -1.
         -5    1    3    3    0  503 -0.11687877886E+03  0.24295401322E+02  0.78905533106E+02  0.14317502795E+03  0.47000000000E+01 0.  1.
         13    1    4    4    0    0 -0.13073247760E+02  0.58906208290E+02  0.61168778118E+02  0.85921304684E+02  0.00000000000E+00 0. -1.
        -14    1    4    4    0    0  0.26864863479E+02 -0.12985330245E+02  0.11639587490E+02  0.32028420008E+02  0.00000000000E+00 0.  1.
</event>
<event>
12    1  0.8297444E-002  0.2399735E+03  0.7818608E-02  0.1120124E+00
         21   -1    0    0  501  502  0.00000000000E+00  0.00000000000E+00  0.37858671899E+02  0.37858671899E+02  0.00000000000E+00 0.  1.
         21   -1    0    0  502  503 -0.00000000000E+00 -0.00000000000E+00 -0.18301489504E+04  0.18301489504E+04  0.00000000000E+00 0.  1.
         -6    2    1    2    0  503 -0.15562252368E+03  0.64320359591E+02 -0.50215196656E+03  0.55574082306E+03  0.16833236873E+03 0.  0.
        -24    2    3    3    0    0 -0.36676814378E+02  0.61195317431E+02 -0.15320633559E+03  0.18703634652E+03  0.80127136888E+02 0.  0.
          6    2    1    2  501    0  0.15562252368E+03 -0.64320359591E+02 -0.12901383120E+04  0.13122667993E+04  0.17097312629E+03 0.  0.
         24    2    5    5    0    0  0.16210622059E+03 -0.71428763397E+02 -0.12862027251E+04  0.13008586191E+04  0.80840595749E+02 0.  0.
          5    1    5    5  501    0 -0.64836969135E+01  0.71084038067E+01 -0.39355868933E+01  0.11408180159E+02  0.47000000000E+01 0. -1.
        -11    1    6    6    0    0  0.16147579584E+03 -0.61768178855E+02 -0.10251180702E+04  0.10395945356E+04  0.00000000000E+00 0.  1.
         12    1    6    6    0    0  0.63042474913E+00 -0.96605845426E+01 -0.26108465488E+03  0.26126408353E+03  0.00000000000E+00 0. -1.
         -5    1    3    3    0  503 -0.11894570930E+03  0.31250421602E+01 -0.34894563097E+03  0.36870447655E+03  0.47000000000E+01 0.  1.
         11    1    4    4    0    0  0.49020813487E+01 -0.48263846453E+01  0.63897499286E+01  0.93889985858E+01  0.00000000000E+00 0. -1.
        -12    1    4    4    0    0 -0.41578895726E+02  0.66021702076E+02 -0.15959608552E+03  0.17764734793E+03  0.00000000000E+00 0.  1.
</event>
<event>
12    1  0.8297444E-002  0.1877063E+03  0.7818608E-02  0.1161150E+00
         21   -1    0    0  503  502  0.00000000000E+00  0.00000000000E+00  0.42553035526E+03  0.42553035526E+03  0.00000000000E+00 0.  1.
         21   -1    0    0  501  503 -0.00000000000E+00 -0.00000000000E+00 -0.13896881875E+03  0.13896881875E+03  0.00000000000E+00 0.  1.
          6    2    1    2  501    0 -0.48654517185E+02  0.53673091781E+02 -0.38575278189E+02  0.18906928955E+03  0.17032639648E+03 0.  0.
         24    2    3    3    0    0 -0.75358991485E+02  0.14880548833E+02 -0.71221850780E+02  0.13157251539E+03  0.79613858384E+02 0.  0.
         -6    2    1    2    0  502  0.48654517185E+02 -0.53673091781E+02  0.32513681469E+03  0.37542988446E+03  0.17316346918E+03 0.  0.
        -24    2    5    5    0    0  0.23029619792E+02 -0.10233609291E+03  0.21441214804E+03  0.25170937343E+03  0.79887421695E+02 0.  0.
          5    1    3    3  501    0  0.26704474301E+02  0.38792542949E+02  0.32646572591E+02  0.57496774154E+02  0.47000000000E+01 0. -1.
        -11    1    4    4    0    0 -0.52211329381E+02  0.26740750564E+02 -0.84109777695E+02  0.10254533320E+03  0.00000000000E+00 0.  1.
         12    1    4    4    0    0 -0.23147662104E+02 -0.11860201732E+02  0.12887926915E+02  0.29027182195E+02  0.00000000000E+00 0. -1.
         -5    1    5    5    0  502  0.25624897393E+02  0.48663001131E+02  0.11072466665E+03  0.12372051103E+03  0.47000000000E+01 0.  1.
         11    1    6    6    0    0  0.41261154356E+02 -0.38225484656E+02  0.53875919318E+02  0.77886360926E+02  0.00000000000E+00 0. -1.
        -12    1    6    6    0    0 -0.18231534564E+02 -0.64110608256E+02  0.16053622873E+03  0.17382301251E+03  0.00000000000E+00 0.  1.
</event>
<event>
12    1  0.8297444E-002  0.1818680E+03  0.7818608E-02  0.1166310E+00
         21   -1    0    0  503  502  0.00000000000E+00  0.00000000000E+00  0.40019841012E+03  0.40019841012E+03  0.00000000000E+00 0. -1.
         21   -1    0    0  501  503 -0.00000000000E+00 -0.00000000000E+00 -0.16380231650E+03  0.16380231650E+03  0.00000000000E+00 0.  1.
          6    2    1    2  501    0 -0.54464824127E+02  0.20535933907E+02 -0.80787088799E+02  0.19900380943E+03  0.17230154034E+03 0.  0.
         24    2    3    3    0    0 -0.44932216054E+02  0.52068511118E+02 -0.11136990404E+03  0.15380897974E+03  0.80770742430E+02 0.  0.
         -6    2    1    2    0  502  0.54464824127E+02 -0.20535933907E+02  0.31718318242E+03  0.36499691719E+03  0.17096618584E+03 0.  0.
        -24    2    5    5    0    0  0.76521944031E+02  0.21323888331E+02  0.13085423548E+03  0.17269681911E+03  0.79944006992E+02 0.  0.
          5    1    3    3  501    0 -0.95326080733E+01 -0.31532577211E+02  0.30582815246E+02  0.45194829689E+02  0.47000000000E+01 0. -1.
        -11    1    4    4    0    0 -0.49698006822E+02  0.29682131573E+02 -0.22610836241E+02  0.62146365399E+02  0.00000000000E+00 0.  1.
         12    1    4    4    0    0  0.47657907679E+01  0.22386379545E+02 -0.88759067804E+02  0.91662614343E+02  0.00000000000E+00 0. -1.
         -5    1    5    5    0  502 -0.22057119904E+02 -0.41859822238E+02  0.18632894693E+03  0.19230009808E+03  0.47000000000E+01 0.  1.
         11    1    6    6    0    0 -0.16915634664E+02  0.60859461560E+01  0.22830530666E+02  0.29058743386E+02  0.00000000000E+00 0. -1.
        -12    1    6    6    0    0  0.93437578696E+02  0.15237942175E+02  0.10802370482E+03  0.14363807572E+03  0.00000000000E+00 0.  1.
</event>
<event>
12    1  0.8297444E-002  0.2335332E+03  0.7818608E-02  0.1124183E+00
         21   -1    0    0  501  502  0.00000000000E+00  0.00000000000E+00  0.77538608495E+03  0.77538608495E+03  0.00000000000E+00 0.  1.
         21   -1    0    0  502  503 -0.00000000000E+00 -0.00000000000E+00 -0.95814085070E+02  0.95814085070E+02  0.00000000000E+00 0.  1.
         -6    2    1    2    0  503  0.11506954617E+03 -0.10745469086E+03  0.11513826042E+03  0.26037395131E+03  0.17248264976E+03 0.  0.
        -24    2    3    3    0    0  0.36706184812E+02 -0.12262996680E+03  0.80978521292E+02  0.17342521251E+03  0.84459047248E+02 0.  0.
          6    2    1    2  501    0 -0.11506954617E+03  0.10745469086E+03  0.56443373946E+03  0.61082621870E+03  0.17244045979E+03 0.  0.
         24    2    5    5    0    0 -0.60534920887E+02  0.10151365440E+02  0.14267593689E+03  0.17454225553E+03  0.79630704704E+02 0.  0.
          5    1    5    5  501    0 -0.54534625282E+02  0.97303325419E+02  0.42175780257E+03  0.43628396317E+03  0.47000000000E+01 0. -1.
        -13    1    6    6    0    0 -0.67528531210E+02  0.31083754531E+02  0.85746705827E+02  0.11348480023E+03  0.00000000000E+00 0.  1.
         14    1    6    6    0    0  0.69936103233E+01 -0.20932389091E+02  0.56929231065E+02  0.61057455303E+02  0.00000000000E+00 0. -1.
         -5    1    3    3    0  503  0.78363361357E+02  0.15175275940E+02  0.34159739124E+02  0.86948738806E+02  0.47000000000E+01 0.  1.
         13    1    4    4    0    0 -0.24525435617E+02 -0.54633598252E+02  0.18694927448E+02  0.62736172679E+02  0.00000000000E+00 0. -1.
        -14    1    4    4    0    0  0.61231620429E+02 -0.67996368547E+02  0.62283593844E+02  0.11068903983E+03  0.00000000000E+00 0.  1.
</event>
<event>
12    1  0.8297444E-002  0.1820359E+03  0.7818608E-02  0.1165875E+00
         21   -1    0    0  503  502  0.00000000000E+00  0.00000000000E+00  0.58186528685E+03  0.58186528685E+03  0.00000000000E+00 0.  1.
         21   -1    0    0  501  503 -0.00000000000E+00 -0.00000000000E+00 -0.61142175959E+02  0.61142175959E+02  0.00000000000E+00 0.  1.
          6    2    1    2  501    0 -0.15980491731E+02  0.56655031449E+02  0.34498605289E+03  0.39006724779E+03  0.17225536976E+03 0.  0.
         24    2    3    3    0    0  0.43273635234E+02  0.66290098783E+02  0.27766635859E+03  0.29974605800E+03  0.80511538884E+02 0.  0.
         -6    2    1    2    0  502  0.15980491731E+02 -0.56655031449E+02  0.17573705801E+03  0.25294021502E+03  0.17213387264E+03 0.  0.
        -24    2    5    5    0    0 -0.25363446582E+02 -0.44802904602E+02  0.18571557964E+03  0.20853914476E+03  0.79672414881E+02 0.  0.
          5    1    3    3  501    0 -0.59254126966E+02 -0.96350673345E+01  0.67319694298E+02  0.90321189791E+02  0.47000000000E+01 0. -1.
        -11    1    4    4    0    0  0.16406621246E+02  0.45455163030E+02  0.49932012131E+02  0.69487803982E+02  0.00000000000E+00 0.  1.
         12    1    4    4    0    0  0.26867013989E+02  0.20834935753E+02  0.22773434646E+03  0.23025825402E+03  0.00000000000E+00 0. -1.
         -5    1    5    5    0  502  0.41343938314E+02 -0.11852126847E+02 -0.99785216322E+01  0.44401070258E+02  0.47000000000E+01 0.  1.
         13    1    6    6    0    0 -0.54852527980E+01  0.10832583816E+02  0.11820824809E+03  0.11883022674E+03  0.00000000000E+00 0. -1.
        -14    1    6    6    0    0 -0.19878193784E+02 -0.55635488418E+02  0.67507331553E+02  0.89708918024E+02  0.00000000000E+00 0.  1.
</event>
<event>
12    1  0.8297444E-002  0.5615726E+03  0.7818608E-02  0.9988900E-01
         21   -1    0    0  503  502  0.00000000000E+00  0.00000000000E+00  0.53222689458E+03  0.53222689458E+03  0.00000000000E+00 0. -1.
         21   -1    0    0  501  503 -0.00000000000E+00 -0.00000000000E+00 -0.59292610789E+03  0.59292610789E+03  0.00000000000E+00 0.  1.
          6    2    1    2  501    0  0.41366906031E+03  0.33797247401E+03 -0.57382286679E+01  0.56089731363E+03  0.17095433461E+03 0.  0.
         24    2    3    3    0    0  0.31134738745E+03  0.32326580614E+03  0.13181441628E+02  0.45570199652E+03  0.77798342797E+02 0.  0.
         -6    2    1    2    0  502 -0.41366906031E+03 -0.33797247401E+03 -0.54960984636E+02  0.56425568884E+03  0.17325209355E+03 0.  0.
        -24    2    5    5    0    0 -0.29223753562E+03 -0.16958974198E+03 -0.73418238967E+02  0.35578238151E+03  0.83829633007E+02 0.  0.
          5    1    3    3  501    0  0.10232167286E+03  0.14706667870E+02 -0.18919670296E+02  0.10519531711E+03  0.47000000000E+01 0. -1.
        -11    1    4    4    0    0  0.14686050251E+03  0.13143336978E+03  0.41550282236E+02  0.20141788362E+03  0.00000000000E+00 0.  1.
         12    1    4    4    0    0  0.16448688494E+03  0.19183243636E+03 -0.28368840608E+02  0.25428411290E+03  0.00000000000E+00 0. -1.
         -5    1    5    5    0  502 -0.12143152469E+03 -0.16838273203E+03  0.18457254331E+02  0.20847330734E+03  0.47000000000E+01 0.  1.
         13    1    6    6    0    0 -0.12517484952E+03 -0.94173392783E+02  0.42691489934E+01  0.15670225427E+03  0.00000000000E+00 0. -1.
        -14    1    6    6    0    0 -0.16706268610E+03 -0.75416349192E+02 -0.77687387960E+02  0.19908012724E+03  0.00000000000E+00 0.  1.
</event>
<event>
12    1  0.8297444E-002  0.1939963E+03  0.7818608E-02  0.1156175E+00
         21   -1    0    0  501  502  0.00000000000E+00  0.00000000000E+00  0.13863195816E+03  0.13863195816E+03  0.00000000000E+00 0. -1.
         21   -1    0    0  502  503 -0.00000000000E+00 -0.00000000000E+00 -0.52766896254E+03  0.52766896254E+03  0.00000000000E+00 0. -1.
         -6    2    1    2    0  503 -0.68517369988E+01  0.88790362752E+02 -0.43164523130E+03  0.47323584851E+03  0.17234815865E+03 0.  0.
        -24    2    3    3    0    0  0.27127633344E+02  0.70945317271E+02 -0.13791823714E+03  0.17697467934E+03  0.80805015059E+02 0.  0.
          6    2    1    2  501    0  0.68517369988E+01 -0.88790362752E+02  0.42608226930E+02  0.19306507218E+03  0.16591559986E+03 0.  0.
         24    2    5    5    0    0  0.54945719704E+02 -0.69342061193E+02  0.63736802383E+02  0.13685320238E+03  0.82698642432E+02 0.  0.
          5    1    5    5  501    0 -0.48093982705E+02 -0.19448301559E+02 -0.21128575453E+02  0.56211869802E+02  0.47000000000E+01 0. -1.
        -13    1    6    6    0    0  0.51450796567E+02 -0.74551599172E+01  0.63372134146E+01  0.52372933379E+02  0.00000000000E+00 0.  1.
         14    1    6    6    0    0  0.34949231365E+01 -0.61886901276E+02  0.57399588969E+02  0.84480269004E+02  0.00000000000E+00 0. -1.
         -5    1    3    3    0  503 -0.33979370343E+02  0.17845045481E+02 -0.29372699416E+03  0.29626116917E+03  0.47000000000E+01 0.  1.
         11    1    4    4    0    0  0.19348751054E+01  0.34719939981E+02 -0.12678528180E+03  0.13146758405E+03  0.00000000000E+00 0. -1.
        -12    1    4    4    0    0  0.25192758239E+02  0.36225377290E+02 -0.11132955339E+02  0.45507095293E+02  0.00000000000E+00 0.  1.
</event>
<event>
12    1  0.8297444E-002  0.1909926E+03  0.7818608E-02  0.1157702E+00
         21   -1    0    0  503  502  0.00000000000E+00  0.00000000000E+00  0.12706637796E+03  0.12706637796E+03  0.00000000000E+00 0. -1.
         21   -1    0    0  501  503 -0.00000000000E+00 -0.00000000000E+00 -0.28756421157E+03  0.28756421157E+03  0.00000000000E+00 0. -1.
          6    2    1    2  501    0 -0.24977362004E+02  0.75721500721E+02 -0.65807661541E+02  0.20145366032E+03  0.17290261610E+03 0.  0.
         24    2    3    3    0    0  0.34475388401E+02  0.91601327829E+02 -0.33658239455E+02  0.13186577502E+03  0.81708933864E+02 0.  0.
         -6    2    1    2    0  502  0.24977362004E+02 -0.75721500721E+02 -0.94690172066E+02  0.21317692921E+03  0.17355275906E+03 0.  0.
        -24    2    5    5    0    0  0.79185972499E+02 -0.72186820695E+02 -0.50633658586E+02  0.14307604623E+03  0.80160041800E+02 0.  0.
          5    1    3    3  501    0 -0.59452750405E+02 -0.15879827108E+02 -0.32149422086E+02  0.69587885297E+02  0.47000000000E+01 0. -1.
        -13    1    4    4    0    0  0.28388085948E+02  0.96778622801E+01  0.17851569272E+02  0.34903050978E+02  0.00000000000E+00 0.  1.
         14    1    4    4    0    0  0.60873024525E+01  0.81923465549E+02 -0.51509808727E+02  0.96962724043E+02  0.00000000000E+00 0. -1.
         -5    1    5    5    0  502 -0.54208610494E+02 -0.35346800256E+01 -0.44056513480E+02  0.70100882980E+02  0.47000000000E+01 0.  1.
         11    1    6    6    0    0 -0.82147391470E+01 -0.34982280536E+02 -0.27662541274E+02  0.45348187180E+02  0.00000000000E+00 0. -1.
        -12    1    6    6    0    0  0.87400711646E+02 -0.37204540159E+02 -0.22971117312E+02  0.97727859053E+02  0.00000000000E+00 0.  1.
</event>
<event>
12    1  0.8297444E-002  0.1982341E+03  0.7818608E-02  0.1151335E+00
         21   -1    0    0  503  502  0.00000000000E+00  0.00000000000E+00  0.39278214607E+02  0.39278214607E+02  0.00000000000E+00 0. -1.
         21   -1    0    0  501  503 -0.00000000000E+00 -0.00000000000E+00 -0.11172688608E+04  0.11172688608E+04  0.00000000000E+00 0. -1.
          6    2    1    2  501    0  0.65211788098E+02  0.73488544881E+02 -0.72723866262E+03  0.75365291023E+03  0.17164933190E+03 0.  0.
         24    2    3    3    0    0  0.14667845195E+02  0.77027306007E+02 -0.65895628733E+03  0.66849549264E+03  0.80712350436E+02 0.  0.
         -6    2    1    2    0  502 -0.65211788098E+02 -0.73488544881E+02 -0.35075198361E+03  0.40289416522E+03  0.17217320008E+03 0.  0.
        -24    2    5    5    0    0 -0.10854624152E+03 -0.54511216483E+02 -0.30037256237E+03  0.33362519720E+03  0.79550843573E+02 0.  0.
          5    1    3    3  501    0  0.50543942904E+02 -0.35387611262E+01 -0.68282375294E+02  0.85157417589E+02  0.47000000000E+01 0. -1.
        -13    1    4    4    0    0  0.19825622181E+01 -0.14680509122E+02 -0.18431280124E+03  0.18490715671E+03  0.00000000000E+00 0.  1.
         14    1    4    4    0    0  0.12685282977E+02  0.91707815130E+02 -0.47464348609E+03  0.48358833593E+03  0.00000000000E+00 0. -1.
         -5    1    5    5    0  502  0.43334453417E+02 -0.18977328398E+02 -0.50379421236E+02  0.69268968017E+02  0.47000000000E+01 0.  1.
         13    1    6    6    0    0 -0.17550272987E+02 -0.42972643225E+01 -0.26232206369E+01  0.18258144733E+02  0.00000000000E+00 0. -1.
        -14    1    6    6    0    0 -0.90995968528E+02 -0.50213952161E+02 -0.29774934174E+03  0.31536705247E+03  0.00000000000E+00 0.  1.
</event>
<event>
12    1  0.8297444E-002  0.2644312E+03  0.7818608E-02  0.1104582E+00
         21   -1    0    0  503  502  0.00000000000E+00  0.00000000000E+00  0.42710460836E+03  0.42710460836E+03  0.00000000000E+00 0. -1.
         21   -1    0    0  501  503 -0.00000000000E+00 -0.00000000000E+00 -0.24907333938E+03  0.24907333938E+03  0.00000000000E+00 0. -1.
          6    2    1    2  501    0  0.15033038269E+03 -0.13304052989E+03 -0.10920267929E+03  0.28609276343E+03  0.17211867292E+03 0.  0.
         24    2    3    3    0    0  0.56252683476E+02  0.34922227884E+01 -0.39538162738E+02  0.10618433975E+03  0.80841126152E+02 0.  0.
         -6    2    1    2    0  502 -0.15033038269E+03  0.13304052989E+03  0.28723394828E+03  0.39008518431E+03  0.17135957348E+03 0.  0.
        -24    2    5    5    0    0 -0.14483665287E+03  0.15003448660E+03  0.29496037610E+03  0.37006611044E+03  0.80369766948E+02 0.  0.
          5    1    3    3  501    0  0.94077699215E+02 -0.13653275268E+03 -0.69664516555E+02  0.17990842368E+03  0.47000000000E+01 0. -1.
        -13    1    4    4    0    0  0.66742816579E+02  0.26101176106E+02 -0.19684201080E+02  0.74319194904E+02  0.00000000000E+00 0.  1.
         14    1    4    4    0    0 -0.10490133104E+02 -0.22608953317E+02 -0.19853961658E+02  0.31865144848E+02  0.00000000000E+00 0. -1.
         -5    1    5    5    0  502 -0.54937298204E+01 -0.16993956709E+02 -0.77264278231E+01  0.20019073876E+02  0.47000000000E+01 0.  1.
         11    1    6    6    0    0 -0.80228424139E+02  0.32657908790E+02  0.14559155591E+03  0.16941086210E+03  0.00000000000E+00 0. -1.
        -12    1    6    6    0    0 -0.64608228731E+02  0.11737657781E+03  0.14936882019E+03  0.20065524833E+03  0.00000000000E+00 0.  1.
</event>
<event>
12    1  0.8297444E-002  0.2216803E+03  0.7818608E-02  0.1133913E+00
         21   -1    0    0  501  502  0.00000000000E+00  0.00000000000E+00  0.32717191681E+03  0.32717191681E+03  0.00000000000E+00 0. -1.
         21   -1    0    0  502  503 -0.00000000000E+00 -0.00000000000E+00 -0.48735478159E+03  0.48735478159E+03  0.00000000000E+00 0. -1.
         -6    2    1    2    0  503 -0.19735168046E+02  0.12756325987E+03 -0.42073480597E+03  0.47243098260E+03  0.17178880707E+03 0.  0.
        -24    2    3    3    0    0  0.40949998386E+02  0.12603223045E+03 -0.29362819942E+03  0.33149407152E+03  0.78165046383E+02 0.  0.
          6    2    1    2  501    0  0.19735168046E+02 -0.12756325987E+03  0.26055194119E+03  0.34209571580E+03  0.18022292469E+03 0.  0.
         24    2    5    5    0    0  0.25001138915E+02 -0.15162856293E+03  0.26549514051E+03  0.31653413369E+03  0.78037876142E+02 0.  0.
          5    1    5    5  501    0 -0.52659708691E+01  0.24065303059E+02 -0.49431993218E+01  0.25561582112E+02  0.47000000000E+01 0. -1.
        -11    1    6    6    0    0  0.16483485347E+01 -0.23048475454E+02  0.11464120805E+03  0.11694680781E+03  0.00000000000E+00 0.  1.
         12    1    6    6    0    0  0.23352790380E+02 -0.12858008747E+03  0.15085393246E+03  0.19958732588E+03  0.00000000000E+00 0. -1.
         -5    1    3    3    0  503 -0.60685166432E+02  0.15310294191E+01 -0.12710660655E+03  0.14093691108E+03  0.47000000000E+01 0.  1.
         11    1    4    4    0    0 -0.16544183296E+02  0.50244285603E+02 -0.15148961709E+03  0.16045965949E+03  0.00000000000E+00 0. -1.
        -12    1    4    4    0    0  0.57494181682E+02  0.75787944845E+02 -0.14213858233E+03  0.17103441203E+03  0.00000000000E+00 0.  1.
</event>
<event>
12    1  0.8297444E-002  0.2260222E+03  0.7818608E-02  0.1129602E+00
         21   -1    0    0  503  502  0.00000000000E+00  0.00000000000E+00  0.82892035028E+03  0.82892035028E+03  0.00000000000E+00 0. -1.
         21   -1    0    0  501  503 -0.00000000000E+00 -0.00000000000E+00 -0.64263440012E+02  0.64263440012E+02  0.00000000000E+00 0. -1.
          6    2    1    2  501    0  0.12366762928E+03  0.78847120988E+02  0.28800621068E+03  0.36565945455E+03  0.17102253738E+03 0.  0.
         24    2    3    3    0    0  0.58396663272E+01  0.11963800540E+02  0.17137243546E+03  0.18682339854E+03  0.73193144356E+02 0.  0.
         -6    2    1    2    0  502 -0.12366762928E+03 -0.78847120988E+02  0.47665069958E+03  0.52752433573E+03  0.17197524345E+03 0.  0.
        -24    2    5    5    0    0 -0.80809502874E+02 -0.12051995537E+03  0.34422554341E+03  0.38215598942E+03  0.80602358000E+02 0.  0.
          5    1    3    3  501    0  0.11782796295E+03  0.66883320449E+02  0.11663377523E+03  0.17883605602E+03  0.47000000000E+01 0. -1.
        -11    1    4    4    0    0 -0.12415542341E+02 -0.14535320830E+02  0.87066847293E+01  0.21005418401E+02  0.00000000000E+00 0.  1.
         12    1    4    4    0    0  0.18255208668E+02  0.26499121370E+02  0.16266575073E+03  0.16581798014E+03  0.00000000000E+00 0. -1.
         -5    1    5    5    0  502 -0.42858126405E+02  0.41672834378E+02  0.13242515617E+03  0.14536834632E+03  0.47000000000E+01 0.  1.
         13    1    6    6    0    0 -0.17845851049E+02 -0.96472677576E+02  0.21811913165E+03  0.23916815739E+03  0.00000000000E+00 0. -1.
        -14    1    6    6    0    0 -0.62963651825E+02 -0.24047277790E+02  0.12610641176E+03  0.14298783202E+03  0.00000000000E+00 0.  1.
</event>
<event>
12    1  0.8297444E-002  0.1768026E+03  0.7818608E-02  0.1171026E+00
         21   -1    0    0  503  502  0.00000000000E+00  0.00000000000E+00  0.10938672642E+04  0.10938672642E+04  0.00000000000E+00 0.  1.
         21   -1    0    0  501  503 -0.00000000000E+00 -0.00000000000E+00 -0.51864086786E+02  0.51864086786E+02  0.00000000000E+00 0.  1.
          6    2    1    2  501    0 -0.27711343238E+02  0.30443851052E+02  0.13633894759E+03  0.22297088885E+03  0.17156037432E+03 0.  0.
         24    2    3    3    0    0 -0.50808368251E+02 -0.24824531538E+02  0.31483142516E+02  0.10212016881E+03  0.78991094207E+02 0.  0.
         -6    2    1    2    0  502  0.27711343238E+02 -0.30443851052E+02  0.90566422985E+03  0.92276046215E+03  0.17194309139E+03 0.  0.
        -24    2    5    5    0    0  0.85384675463E+02 -0.58998877817E+00  0.62795154734E+03  0.63751689892E+03  0.69381263371E+02 0.  0.
          5    1    3    3  501    0  0.23097025013E+02  0.55268382591E+02  0.10485580507E+03  0.12085072005E+03  0.47000000000E+01 0. -1.
        -11    1    4    4    0    0 -0.69868260470E+02 -0.22712046303E+02  0.11390094345E+02  0.74344771958E+02  0.00000000000E+00 0.  1.
         12    1    4    4    0    0  0.19059892219E+02 -0.21124852349E+01  0.20093048171E+02  0.27775396848E+02  0.00000000000E+00 0. -1.
         -5    1    5    5    0  502 -0.57673332226E+02 -0.29853862274E+02  0.27771268250E+03  0.28524356323E+03  0.47000000000E+01 0.  1.
         13    1    6    6    0    0 -0.45600198205E+01  0.92410199736E+01  0.16834716283E+02  0.19738234553E+02  0.00000000000E+00 0. -1.
        -14    1    6    6    0    0  0.89944695284E+02 -0.98310087518E+01  0.61111683106E+03  0.61777866437E+03  0.00000000000E+00 0.  1.
</event>
<event>
12    1  0.8297444E-002  0.3324154E+03  0.7818608E-02  0.1070098E+00
         21   -1    0    0  503  502  0.00000000000E+00  0.00000000000E+00  0.34136255935E+03  0.34136255935E+03  0.00000000000E+00 0.  1.
         21   -1    0    0  501  503 -0.00000000000E+00 -0.00000000000E+00 -0.41731909927E+03  0.41731909927E+03  0.00000000000E+00 0. -1.
          6    2    1    2  501    0  0.16981762957E+03 -0.22800259145E+03  0.14191122365E+03  0.36123185247E+03  0.17183261280E+03 0.  0.
         24    2    3    3    0    0  0.80656625432E+02 -0.18179638979E+03  0.40500059106E+02  0.21843475158E+03  0.80734548614E+02 0.  0.
         -6    2    1    2    0  502 -0.16981762957E+03  0.22800259145E+03 -0.21786776357E+03  0.39744980615E+03  0.17226948943E+03 0.  0.
        -24    2    5    5    0    0 -0.18338726797E+03  0.15475441445E+03 -0.13676619662E+03  0.28722737340E+03  0.78833702473E+02 0.  0.
          5    1    3    3  501    0  0.89161004134E+02 -0.46206201656E+02  0.10141116455E+03  0.14279710090E+03  0.47000000000E+01 0. -1.
        -11    1    4    4    0    0 -0.12497726221E+02 -0.55592878599E+02  0.19237698111E+02  0.60140255572E+02  0.00000000000E+00 0.  1.
         12    1    4    4    0    0  0.93154351653E+02 -0.12620351120E+03  0.21262360995E+02  0.15829449600E+03  0.00000000000E+00 0. -1.
         -5    1    5    5    0  502  0.13569638402E+02  0.73248177000E+02 -0.81101566956E+02  0.11022243276E+03  0.47000000000E+01 0.  1.
         11    1    6    6    0    0 -0.72622356995E+01  0.42865518789E+02 -0.30142301915E+02  0.52903224223E+02  0.00000000000E+00 0. -1.
        -12    1    6    6    0    0 -0.17612503227E+03  0.11188889566E+03 -0.10662389470E+03  0.23432414917E+03  0.00000000000E+00 0.  1.
</event>
<event>
12    1  0.8297444E-002  0.2311292E+03  0.7818608E-02  0.1126024E+00
         21   -1    0    0  503  502  0.00000000000E+00  0.00000000000E+00  0.72206021444E+03  0.72206021444E+03  0.00000000000E+00 0.  1.
         21   -1    0    0  501  503 -0.00000000000E+00 -0.00000000000E+00 -0.89759058487E+03  0.89759058487E+03  0.00000000000E+00 0. -1.
          6    2    1    2  501    0  0.14721603457E+03 -0.46169959473E+02 -0.86366497795E+03  0.89405697752E+03  0.17209433146E+03 0.  0.
         24    2    3    3    0    0  0.13427708769E+03  0.14940536227E+02 -0.47503003724E+03  0.50040596942E+03  0.80616636358E+02 0.  0.
         -6    2    1    2    0  502 -0.14721603457E+03  0.46169959473E+02  0.68813460752E+03  0.72559382179E+03  0.17074229167E+03 0.  0.
        -24    2    5    5    0    0 -0.36693688734E+02  0.21215258101E+02  0.48470446610E+03  0.49269075507E+03  0.77519331190E+02 0.  0.
          5    1    3    3  501    0  0.12938946880E+02 -0.61110495700E+02 -0.38863494071E+03  0.39365100810E+03  0.47000000000E+01 0. -1.
        -11    1    4    4    0    0  0.24629867493E+01 -0.18304096787E+02 -0.31550451954E+02  0.36558682709E+02  0.00000000000E+00 0.  1.
         12    1    4    4    0    0  0.13181410094E+03  0.33244633014E+02 -0.44347958528E+03  0.46384728671E+03  0.00000000000E+00 0. -1.
         -5    1    5    5    0  502 -0.11052234583E+03  0.24954701372E+02  0.20343014142E+03  0.23290306672E+03  0.47000000000E+01 0.  1.
         13    1    6    6    0    0  0.14320685389E+02 -0.13994220722E+02  0.54856091493E+02  0.58396155845E+02  0.00000000000E+00 0. -1.
        -14    1    6    6    0    0 -0.51014374123E+02  0.35209478823E+02  0.42984837461E+03  0.43429459923E+03  0.00000000000E+00 0.  1.
</event>
<event>
12    1  0.8297444E-002  0.1906481E+03  0.7818608E-02  0.1157891E+00
         21   -1    0    0  503  502  0.00000000000E+00  0.00000000000E+00  0.24819008341E+03  0.24819008341E+03  0.00000000000E+00 0.  1.
         21   -1    0    0  501  503 -0.00000000000E+00 -0.00000000000E+00 -0.19548264277E+03  0.19548264277E+03  0.00000000000E+00 0.  1.
          6    2    1    2  501    0  0.10530256227E+02 -0.82762149375E+02 -0.84797538871E+02  0.20865597720E+03  0.17142413645E+03 0.  0.
         24    2    3    3    0    0 -0.59358878972E+02 -0.57844663804E+02 -0.62110435556E+02  0.13092460025E+03  0.80087846153E+02 0.  0.
         -6    2    1    2    0  502 -0.10530256227E+02  0.82762149375E+02  0.13750497952E+03  0.23501674898E+03  0.17136158625E+03 0.  0.
        -24    2    5    5    0    0 -0.42430764532E+02  0.11215149119E+03  0.88996540840E+02  0.16977462711E+03  0.80775695453E+02 0.  0.
          5    1    3    3  501    0  0.69889135200E+02 -0.24917485571E+02 -0.22687103315E+02  0.77731376953E+02  0.47000000000E+01 0. -1.
        -13    1    4    4    0    0 -0.11510173011E+02 -0.51099972286E+02 -0.18975689013E+00  0.52380600016E+02  0.00000000000E+00 0.  1.
         14    1    4    4    0    0 -0.47848705961E+02 -0.67446915178E+01 -0.61920678666E+02  0.78544000231E+02  0.00000000000E+00 0. -1.
         -5    1    5    5    0  502  0.31900508305E+02 -0.29389341813E+02  0.48508438678E+02  0.65242121864E+02  0.47000000000E+01 0.  1.
         13    1    6    6    0    0 -0.66282350892E+01  0.37846848037E+01 -0.14062869684E+02  0.16000676336E+02  0.00000000000E+00 0. -1.
        -14    1    6    6    0    0 -0.35802529443E+02  0.10836680638E+03  0.10305941052E+03  0.15377395078E+03  0.00000000000E+00 0.  1.
</event>
<event>
12    1  0.8297444E-002  0.2688340E+03  0.7818608E-02  0.1102033E+00
         21   -1    0    0  501  502  0.00000000000E+00  0.00000000000E+00  0.55025736050E+03  0.55025736050E+03  0.00000000000E+00 0.  1.
         21   -1    0    0  502  503 -0.00000000000E+00 -0.00000000000E+00 -0.13557417808E+03  0.13557417808E+03  0.00000000000E+00 0. -1.
         -6    2    1    2    0  503  0.16861337662E+03 -0.11780763158E+03  0.14496832473E+03  0.30543009714E+03  0.17309714101E+03 0.  0.
        -24    2    3    3    0    0  0.84407751812E+02 -0.35501346328E+01  0.23296671944E+02  0.11842356262E+03  0.79650067411E+02 0.  0.
          6    2    1    2  501    0 -0.16861337662E+03  0.11780763158E+03  0.26971485769E+03  0.38040144145E+03  0.17219187949E+03 0.  0.
         24    2    5    5    0    0 -0.44141531853E+02  0.32596413996E+02  0.18222010249E+03  0.20595484810E+03  0.78754254896E+02 0.  0.
          5    1    5    5  501    0 -0.12447184477E+03  0.85211217588E+02  0.87494755192E+02  0.17444659334E+03  0.47000000000E+01 0. -1.
        -11    1    6    6    0    0  0.20557337620E+02  0.16644751036E+02  0.76925220644E+02  0.81345813895E+02  0.00000000000E+00 0.  1.
         12    1    6    6    0    0 -0.64698869474E+02  0.15951662960E+02  0.10529488185E+03  0.12460903421E+03  0.00000000000E+00 0. -1.
         -5    1    3    3    0  503  0.84205624810E+02 -0.11425749695E+03  0.12167165279E+03  0.18700653451E+03  0.47000000000E+01 0.  1.
         13    1    4    4    0    0 -0.23931818269E+01 -0.20465134995E+02 -0.11256821726E+02  0.23479035436E+02  0.00000000000E+00 0. -1.
        -14    1    4    4    0    0  0.86800933639E+02  0.16915000362E+02  0.34553493670E+02  0.94944527187E+02  0.00000000000E+00 0.  1.
</event>
<event>
12    1  0.8297444E-002  0.2536345E+03  0.7818608E-02  0.1111064E+00
         21   -1    0    0  503  502  0.00000000000E+00  0.00000000000E+00  0.21568092052E+03  0.21568092052E+03  0.00000000000E+00 0. -1.
         21   -1    0    0  501  503 -0.00000000000E+00 -0.00000000000E+00 -0.31945691447E+03  0.31945691447E+03  0.00000000000E+00 0. -1.
          6    2    1    2  501    0 -0.37146849735E+02  0.18300157783E+03  0.17469086445E+02  0.25401360140E+03  0.17131338179E+03 0.  0.
         24    2    3    3    0    0 -0.94247078393E+01  0.14353832151E+02  0.17697627084E+02  0.83037809238E+02  0.79291955099E+02 0.  0.
         -6    2    1    2    0  502  0.37146849735E+02 -0.18300157783E+03 -0.12124508040E+03  0.28112423359E+03  0.17164206727E+03 0.  0.
        -24    2    5    5    0    0  0.70314064453E+02 -0.18678460475E+03 -0.85149366404E+02  0.23173429541E+03  0.81349940617E+02 0.  0.
          5    1    3    3  501    0 -0.27722141895E+02  0.16864774568E+03 -0.22854063828E+00  0.17097579216E+03  0.47000000000E+01 0. -1.
        -13    1    4    4    0    0 -0.41449520836E+01 -0.28758569232E+02 -0.10901310929E+02  0.31033441833E+02  0.00000000000E+00 0.  1.
         14    1    4    4    0    0 -0.52797557557E+01  0.43112401382E+02  0.28598938013E+02  0.52004367405E+02  0.00000000000E+00 0. -1.
         -5    1    5    5    0  502 -0.33167214718E+02  0.37830269211E+01 -0.36095713994E+02  0.49389938181E+02  0.47000000000E+01 0.  1.
         11    1    6    6    0    0  0.26470100001E+02 -0.12544743673E+03 -0.89268295603E+02  0.15622597152E+03  0.00000000000E+00 0. -1.
        -12    1    6    6    0    0  0.43843964451E+02 -0.61337168019E+02  0.41189291983E+01  0.75508323893E+02  0.00000000000E+00 0.  1.
</event>
<event>
12    1  0.8297444E-002  0.2537891E+03  0.7818608E-02  0.1111077E+00
         21   -1    0    0  503  502  0.00000000000E+00  0.00000000000E+00  0.63480577460E+03  0.63480577460E+03  0.00000000000E+00 0.  1.
         21   -1    0    0  501  503 -0.00000000000E+00 -0.00000000000E+00 -0.30999343081E+03  0.30999343081E+03  0.00000000000E+00 0. -1.
          6    2    1    2  501    0  0.91831975983E+02  0.16120821151E+03 -0.22529289156E+03  0.33936088023E+03  0.17316963004E+03 0.  0.
         24    2    3    3    0    0  0.28193107602E+02  0.15904262950E+03 -0.20311949225E+03  0.27177134738E+03  0.80701473394E+02 0.  0.
         -6    2    1    2    0  502 -0.91831975983E+02 -0.16120821151E+03  0.55010523535E+03  0.60543832518E+03  0.17180976797E+03 0.  0.
        -24    2    5    5    0    0 -0.93128396665E+02 -0.18308912395E+03  0.53382269860E+03  0.57773153831E+03  0.81317471994E+02 0.  0.
          5    1    3    3  501    0  0.63638868381E+02  0.21655820165E+01 -0.22173399309E+02  0.67589532852E+02  0.47000000000E+01 0. -1.
        -13    1    4    4    0    0 -0.27001108304E+02  0.42441809480E+02 -0.43214669022E+02  0.66316473521E+02  0.00000000000E+00 0.  1.
         14    1    4    4    0    0  0.55194215907E+02  0.11660082002E+03 -0.15990482323E+03  0.20545487386E+03  0.00000000000E+00 0. -1.
         -5    1    5    5    0  502  0.12964206822E+01  0.21880912436E+02  0.16282536754E+02  0.27706786872E+02  0.47000000000E+01 0.  1.
         13    1    6    6    0    0 -0.53355886987E+02 -0.36517163019E+02  0.21631264834E+03  0.22576872171E+03  0.00000000000E+00 0. -1.
        -14    1    6    6    0    0 -0.39772509678E+02 -0.14657196093E+03  0.31751005026E+03  0.35196281661E+03  0.00000000000E+00 0.  1.
</event>
<event>
12    1  0.8297444E-002  0.1765019E+03  0.7818608E-02  0.1171685E+00
         21   -1    0    0  501  502  0.00000000000E+00  0.00000000000E+00  0.11135367911E+03  0.11135367911E+03  0.00000000000E+00 0. -1.
         21   -1    0    0  502  503 -0.00000000000E+00 -0.00000000000E+00 -0.35788155296E+03  0.35788155296E+03  0.00000000000E+00 0. -1.
         -6    2    1    2    0  503  0.35528032223E+02  0.13092316277E+02 -0.23536403092E+03  0.29419237764E+03  0.17239280203E+03 0.  0.
        -24    2    3    3    0    0 -0.38514750490E+02 -0.30360883887E+01 -0.18128363953E+03  0.20097629619E+03  0.77685969319E+02 0.  0.
          6    2    1    2  501    0 -0.35528032223E+02 -0.13092316277E+02 -0.11163842926E+02  0.17504285442E+03  0.17053363210E+03 0.  0.
         24    2    5    5    0    0 -0.57874623213E+02  0.92412913369E+01  0.45956425011E+02  0.10959841106E+03  0.80404883117E+02 0.  0.
          5    1    5    5  501    0  0.22346590990E+02 -0.22333607614E+02 -0.57120267937E+02  0.65444443363E+02  0.47000000000E+01 0. -1.
        -13    1    6    6    0    0 -0.12980896548E+01  0.29611433285E+01 -0.21266983576E+02  0.21511345773E+02  0.00000000000E+00 0.  1.
         14    1    6    6    0    0 -0.56576533558E+02  0.62801480084E+01  0.67223408587E+02  0.88087065285E+02  0.00000000000E+00 0. -1.
         -5    1    3    3    0  503  0.74042782713E+02  0.16128404666E+02 -0.54080391391E+02  0.93216081455E+02  0.47000000000E+01 0.  1.
         13    1    4    4    0    0 -0.12187579514E+01  0.16451850318E+01 -0.15522468756E+03  0.15523818999E+03  0.00000000000E+00 0. -1.
        -14    1    4    4    0    0 -0.37295992539E+02 -0.46812734205E+01 -0.26058951975E+02  0.45738106195E+02  0.00000000000E+00 0.  1.
</event>
<event>
12    1  0.8297444E-002  0.2164276E+03  0.7818608E-02  0.1136960E+00
         21   -1    0    0  503  502  0.00000000000E+00  0.00000000000E+00  0.59947862711E+03  0.59947862711E+03  0.00000000000E+00 0.  1.
         21   -1    0    0  501  503 -0.00000000000E+00 -0.00000000000E+00 -0.12444757055E+03  0.12444757055E+03  0.00000000000E+00 0. -1.
          6    2    1    2  501    0 -0.13034754262E+03 -0.11125913366E+02  0.15677149998E+02  0.21699468119E+03  0.17241418393E+03 0.  0.
         24    2    3    3    0    0 -0.10306643875E+03 -0.27648767465E+02  0.72196037754E+02  0.15192750046E+03  0.80514299285E+02 0.  0.
         -6    2    1    2    0  502  0.13034754262E+03  0.11125913366E+02  0.45935390656E+03  0.50693151646E+03  0.16988020219E+03 0.  0.
        -24    2    5    5    0    0  0.93940656432E+02  0.34583894108E+02  0.16496449064E+03  0.20933622680E+03  0.81163292297E+02 0.  0.
          5    1    3    3  501    0 -0.27281103869E+02  0.16522854100E+02 -0.56518887756E+02  0.65067180737E+02  0.47000000000E+01 0. -1.
        -11    1    4    4    0    0 -0.55893914723E+02  0.20179253711E+02  0.58460658676E+02  0.83360545801E+02  0.00000000000E+00 0.  1.
         12    1    4    4    0    0 -0.47172524024E+02 -0.47828021176E+02  0.13735379078E+02  0.68566954656E+02  0.00000000000E+00 0. -1.
         -5    1    5    5    0  502  0.36406886184E+02 -0.23457980742E+02  0.29438941592E+03  0.29759528966E+03  0.47000000000E+01 0.  1.
         11    1    6    6    0    0  0.39047388702E+02 -0.25881533264E+02  0.67800988258E+02  0.82410717369E+02  0.00000000000E+00 0. -1.
        -12    1    6    6    0    0  0.54893267730E+02  0.60465427372E+02  0.97163502386E+02  0.12692550943E+03  0.00000000000E+00 0.  1.
</event>
<event>
12    1  0.8297444E-002  0.1814673E+03  0.7818608E-02  0.1166531E+00
         21   -1    0    0  501  502  0.00000000000E+00  0.00000000000E+00  0.86337951931E+03  0.86337951931E+03  0.00000000000E+00 0. -1.
         21   -1    0    0  502  503 -0.00000000000E+00 -0.00000000000E+00 -0.10062142350E+03  0.10062142350E+03  0.00000000000E+00 0. -1.
         -6    2    1    2    0  503 -0.46438204207E+02 -0.24660529289E+02  0.14228522118E+01  0.18147285714E+03  0.17368282832E+03 0.  0.
        -24    2    3    3    0    0 -0.71810240229E+02  0.16882640748E+02  0.42348712513E+02  0.11770302705E+03  0.81356345566E+02 0.  0.
          6    2    1    2  501    0  0.46438204207E+02  0.24660529289E+02  0.76133524360E+03  0.78252808567E+03  0.17307282629E+03 0.  0.
         24    2    5    5    0    0  0.23506047609E+02  0.40070952375E+02  0.22890834858E+03  0.24936408324E+03  0.87322382371E+02 0.  0.
          5    1    5    5  501    0  0.22932156598E+02 -0.15410423086E+02  0.53242689502E+03  0.53316400243E+03  0.47000000000E+01 0. -1.
        -11    1    6    6    0    0 -0.22518194889E+02  0.35826631249E+02  0.16595921990E+03  0.17126902603E+03  0.00000000000E+00 0.  1.
         12    1    6    6    0    0  0.46024242498E+02  0.42443211254E+01  0.62949128687E+02  0.78095057217E+02  0.00000000000E+00 0. -1.
         -5    1    3    3    0  503  0.25372036022E+02 -0.41543170037E+02 -0.40925860301E+02  0.63769830093E+02  0.47000000000E+01 0.  1.
         11    1    4    4    0    0 -0.40783043637E+02 -0.28466853532E+02  0.24469673444E+01  0.49795642857E+02  0.00000000000E+00 0. -1.
        -12    1    4    4    0    0 -0.31027196592E+02  0.45349494281E+02  0.39901745168E+02  0.67907384189E+02  0.00000000000E+00 0.  1.
</event>
<event>
12    1  0.8297444E-002  0.2150315E+03  0.7818608E-02  0.1137725E+00
         21   -1    0    0  503  502  0.00000000000E+00  0.00000000000E+00  0.40589297288E+03  0.40589297288E+03  0.00000000000E+00 0.  1.
         21   -1    0    0  501  503 -0.00000000000E+00 -0.00000000000E+00 -0.23835900982E+03  0.23835900982E+03  0.00000000000E+00 0.  1.
          6    2    1    2  501    0  0.12882182373E+03 -0.11865401144E+02 -0.14915654469E+03  0.26169872823E+03  0.17176349880E+03 0.  0.
         24    2    3    3    0    0  0.52269915407E+02  0.41703515449E+02 -0.20406380590E+02  0.10254936993E+03  0.75024167082E+02 0.  0.
         -6    2    1    2    0  502 -0.12882182373E+03  0.11865401144E+02  0.31669050775E+03  0.38255325447E+03  0.17122577141E+03 0.  0.
        -24    2    5    5    0    0 -0.92867363380E+02 -0.26524931945E+02  0.10251201037E+03  0.16196073503E+03  0.79966544415E+02 0.  0.
          5    1    3    3  501    0  0.76551908322E+02 -0.53568916592E+02 -0.12875016410E+03  0.15914935830E+03  0.47000000000E+01 0. -1.
        -11    1    4    4    0    0  0.63776310384E+02  0.75058481361E+01 -0.16161789927E+02  0.66219022766E+02  0.00000000000E+00 0.  1.
         12    1    4    4    0    0 -0.11506394977E+02  0.34197667313E+02 -0.42445906629E+01  0.36330347162E+02  0.00000000000E+00 0. -1.
         -5    1    5    5    0  502 -0.35954460350E+02  0.38390333089E+02  0.21417849738E+03  0.22059251944E+03  0.47000000000E+01 0.  1.
         11    1    6    6    0    0  0.12019654882E+02  0.82345715183E+01  0.15886523000E+02  0.21556017364E+02  0.00000000000E+00 0. -1.
        -12    1    6    6    0    0 -0.10488701826E+03 -0.34759503464E+02  0.86625487369E+02  0.14040471767E+03  0.00000000000E+00 0.  1.
</event>
<event>
12    1  0.8297444E-002  0.2025306E+03  0.7818608E-02  0.1147671E+00
         21   -1    0    0  503  502  0.00000000000E+00  0.00000000000E+00  0.11586202271E+03  0.11586202271E+03  0.00000000000E+00 0.  1.
         21   -1    0    0  501  503 -0.00000000000E+00 -0.00000000000E+00 -0.36476679044E+03  0.36476679044E+03  0.00000000000E+00 0.  1.
          6    2    1    2  501    0 -0.49154938637E+02  0.94176855850E+02 -0.16639906623E+03  0.26193760946E+03  0.17215450570E+03 0.  0.
         24    2    3    3    0    0  0.19563949476E+02  0.37401548201E+01 -0.42876709081E+02  0.94065797668E+02  0.81321738988E+02 0.  0.
         -6    2    1    2    0  502  0.49154938637E+02 -0.94176855850E+02 -0.82505701504E+02  0.21869120370E+03  0.17243306998E+03 0.  0.
        -24    2    5    5    0    0  0.11793226266E+02 -0.39342482984E+02  0.23286786253E+02  0.93723822095E+02  0.80962764657E+02 0.  0.
          5    1    3    3  501    0 -0.68718888113E+02  0.90436701030E+02 -0.12352235715E+03  0.16787181179E+03  0.47000000000E+01 0. -1.
        -13    1    4    4    0    0 -0.20346165207E+02  0.29152207904E+02 -0.11794043232E+02  0.37455535239E+02  0.00000000000E+00 0.  1.
         14    1    4    4    0    0  0.39910114682E+02 -0.25412053084E+02 -0.31082665849E+02  0.56610262428E+02  0.00000000000E+00 0. -1.
         -5    1    5    5    0  502  0.37361712372E+02 -0.54834372866E+02 -0.10579248776E+03  0.12496738160E+03  0.47000000000E+01 0.  1.
         11    1    6    6    0    0 -0.15661209916E+02 -0.56288927011E+02  0.17040928019E+02  0.60861400147E+02  0.00000000000E+00 0. -1.
        -12    1    6    6    0    0  0.27454436182E+02  0.16946444027E+02  0.62458582341E+01  0.32862421948E+02  0.00000000000E+00 0.  1.
</event>
<event>
12    1  0.8297444E-002  0.1819534E+03  0.7818608E-02  0.1166086E+00
         21   -1    0    0  501  502  0.00000000000E+00  0.00000000000E+00  0.12696711110E+03  0.12696711110E+03  0.00000000000E+00 0.  1.
         21   -1    0    0  502  503 -0.00000000000E+00 -0.00000000000E+00 -0.30079022634E+03  0.30079022634E+03  0.00000000000E+00 0.  1.
         -6    2    1    2    0  503 -0.21963593974E+02 -0.55478985562E+02 -0.16600995535E+03  0.24630536782E+03  0.17189156943E+03 0.  0.
        -24    2    3    3    0    0  0.87369090016E+01 -0.73052998014E+02 -0.41312562893E+02  0.11660225883E+03  0.80475367742E+02 0.  0.
          6    2    1    2  501    0  0.21963593974E+02  0.55478985562E+02 -0.78131598945E+01  0.18145196962E+03  0.17118251813E+03 0.  0.
         24    2    5    5    0    0  0.25733559484E+02  0.10217821573E+03 -0.17592542559E+02  0.13336083672E+03  0.79831142810E+02 0.  0.
          5    1    5    5  501    0 -0.37699655098E+01 -0.46699230170E+02  0.97793826648E+01  0.48091132901E+02  0.47000000000E+01 0. -1.
        -11    1    6    6    0    0  0.11626940681E+02 -0.96036984382E+01  0.90468285929E+01  0.17585843195E+02  0.00000000000E+00 0.  1.
         12    1    6    6    0    0  0.14106618803E+02  0.11178191417E+03 -0.26639371152E+02  0.11577499352E+03  0.00000000000E+00 0. -1.
         -5    1    3    3    0  503 -0.30700502976E+02  0.17574012452E+02 -0.12469739246E+03  0.12970310899E+03  0.47000000000E+01 0.  1.
         11    1    4    4    0    0 -0.12222361542E+02  0.13484890048E+02 -0.15474930107E+02  0.23889366737E+02  0.00000000000E+00 0. -1.
        -12    1    4    4    0    0  0.20959270543E+02 -0.86537888062E+02 -0.25837632785E+02  0.92712892091E+02  0.00000000000E+00 0.  1.
</event>
<event>
12    1  0.8297444E-002  0.1865336E+03  0.7818608E-02  0.1161965E+00
         21   -1    0    0  503  502  0.00000000000E+00  0.00000000000E+00  0.24324160952E+03  0.24324160952E+03  0.00000000000E+00 0. -1.
         21   -1    0    0  501  503 -0.00000000000E+00 -0.00000000000E+00 -0.20610965781E+03  0.20610965781E+03  0.00000000000E+00 0. -1.
          6    2    1    2  501    0 -0.65147196546E+02 -0.29829066097E+02 -0.10686291027E+03  0.21370466562E+03  0.17063432279E+03 0.  0.
         24    2    3    3    0    0 -0.13180743337E+02 -0.74583029948E+02 -0.91380171199E+02  0.14324024376E+03  0.80193961072E+02 0.  0.
         -6    2    1    2    0  502  0.65147196546E+02  0.29829066097E+02  0.14399486197E+03  0.23564660171E+03  0.17222331497E+03 0.  0.
        -24    2    5    5    0    0  0.32854661406E+02 -0.38761131796E+02  0.12582200459E+03  0.15754560416E+03  0.80047401182E+02 0.  0.
          5    1    3    3  501    0 -0.51966453210E+02  0.44753963850E+02 -0.15482739069E+02  0.70464421864E+02  0.47000000000E+01 0. -1.
        -11    1    4    4    0    0  0.12125614795E+02 -0.70165447034E+02 -0.31073887473E+02  0.77690456134E+02  0.00000000000E+00 0.  1.
         12    1    4    4    0    0 -0.25306358132E+02 -0.44175829139E+01 -0.60306283727E+02  0.65549787625E+02  0.00000000000E+00 0. -1.
         -5    1    5    5    0  502  0.32292535140E+02  0.68590197893E+02  0.18172857379E+02  0.78100997549E+02  0.47000000000E+01 0.  1.
         13    1    6    6    0    0  0.36614885225E+02 -0.24069151928E+01  0.11300825300E+03  0.11881627964E+03  0.00000000000E+00 0. -1.
        -14    1    6    6    0    0 -0.37602238190E+01 -0.36354216603E+02  0.12813751592E+02  0.38729324521E+02  0.00000000000E+00 0.  1.
</event>
<event>
12    1  0.8297444E-002  0.2409659E+03  0.7818608E-02  0.1119317E+00
         21   -1    0    0  503  502  0.00000000000E+00  0.00000000000E+00  0.30382977217E+03  0.30382977217E+03  0.00000000000E+00 0.  1.
         21   -1    0    0  501  503 -0.00000000000E+00 -0.00000000000E+00 -0.20357839052E+03  0.20357839052E+03  0.00000000000E+00 0.  1.
          6    2    1    2  501    0 -0.15407173017E+03  0.67651247042E+02 -0.14721439436E+02  0.24041876615E+03  0.17108381886E+03 0.  0.
         24    2    3    3    0    0 -0.56293865296E+02 -0.14850814215E+02  0.33672703492E+02  0.10355685019E+03  0.78744043005E+02 0.  0.
         -6    2    1    2    0  502  0.15407173017E+03 -0.67651247042E+02  0.11497282109E+03  0.26698939654E+03  0.17248130048E+03 0.  0.
        -24    2    5    5    0    0  0.10540944436E+03 -0.10138768019E+03  0.39474026289E+02  0.17092523570E+03  0.79162016111E+02 0.  0.
          5    1    3    3  501    0 -0.97777864872E+02  0.82502061257E+02 -0.48394142928E+02  0.13686191596E+03  0.47000000000E+01 0. -1.
        -13    1    4    4    0    0 -0.26954019430E+02  0.21473515843E+02 -0.13658315790E+02  0.37069942491E+02  0.00000000000E+00 0.  1.
         14    1    4    4    0    0 -0.29339845866E+02 -0.36324330057E+02  0.47331019282E+02  0.66486907702E+02  0.00000000000E+00 0. -1.
         -5    1    5    5    0  502  0.48662285809E+02  0.33736433147E+02  0.75498794797E+02  0.96064160838E+02  0.47000000000E+01 0.  1.
         13    1    6    6    0    0  0.71979179585E+02 -0.89551346429E+02  0.60344144785E+02  0.12977619871E+03  0.00000000000E+00 0. -1.
        -14    1    6    6    0    0  0.33430264774E+02 -0.11836333760E+02 -0.20870118496E+02  0.41149036997E+02  0.00000000000E+00 0.  1.
</event>
<event>
12    1  0.8297444E-002  0.1836251E+03  0.7818608E-02  0.1164639E+00
         21   -1    0    0  501  502  0.00000000000E+00  0.00000000000E+00  0.44071213642E+03  0.44071213642E+03  0.00000000000E+00 0.  1.
         21   -1    0    0  502  503 -0.00000000000E+00 -0.00000000000E+00 -0.12553487905E+03  0.12553487905E+03  0.00000000000E+00 0.  1.
         -6    2    1    2    0  503 -0.60223244762E+02 -0.31316954057E+01 -0.20619704450E+02  0.18352284049E+03  0.17210117386E+03 0.  0.
        -24    2    3    3    0    0 -0.51278027369E+02  0.14326167355E+02 -0.78007899636E+02  0.12269284104E+03  0.78317467241E+02 0.  0.
          6    2    1    2  501    0  0.60223244762E+02  0.31316954057E+01  0.33579696182E+03  0.38272417497E+03  0.17344032927E+03 0.  0.
         24    2    5    5    0    0 -0.50378469580E+01 -0.85983882709E+01  0.62634596340E+02  0.10159009154E+03  0.79360833271E+02 0.  0.
          5    1    5    5  501    0  0.65261091720E+02  0.11730083677E+02  0.27316236548E+03  0.28113408344E+03  0.47000000000E+01 0. -1.
        -11    1    6    6    0    0  0.28173637327E+02 -0.16150794311E+02  0.58987593060E+02  0.67336009179E+02  0.00000000000E+00 0.  1.
         12    1    6    6    0    0 -0.33211484285E+02  0.75524060398E+01  0.36470032799E+01  0.34254082360E+02  0.00000000000E+00 0. -1.
         -5    1    3    3    0  503 -0.89452173938E+01 -0.17457862761E+02  0.57388195186E+02  0.60829999450E+02  0.47000000000E+01 0.  1.
         13    1    4    4    0    0 -0.20616697620E+02  0.40104240789E+02 -0.14059677277E+02  0.47234234144E+02  0.00000000000E+00 0. -1.
        -14    1    4    4    0    0 -0.30661329749E+02 -0.25778073434E+02 -0.63948222359E+02  0.75458606896E+02  0.00000000000E+00 0.  1.
</event>
<event>
12    1  0.8297444E-002  0.3283466E+03  0.7818608E-02  0.1072000E+00
         21   -1    0    0  503  502  0.00000000000E+00  0.00000000000E+00  0.29444788113E+03  0.29444788113E+03  0.00000000000E+00 0. -1.
         21   -1    0    0  501  503 -0.00000000000E+00 -0.00000000000E+00 -0.44410658193E+03  0.44410658193E+03  0.00000000000E+00 0. -1.
          6    2    1    2  501    0 -0.18967386379E+03  0.20421963510E+03  0.81268924355E+02  0.33713317418E+03  0.17138350299E+03 0.  0.
         24    2    3    3    0    0 -0.18666492340E+02  0.59168543730E+02  0.12437886089E+02  0.10252042510E+03  0.80662147565E+02 0.  0.
         -6    2    1    2    0  502  0.18967386379E+03 -0.20421963510E+03 -0.23092762515E+03  0.40142128889E+03  0.17357894213E+03 0.  0.
        -24    2    5    5    0    0  0.17570164285E+03 -0.98073359098E+02 -0.12179213092E+03  0.24846737110E+03  0.80082833870E+02 0.  0.
          5    1    3    3  501    0 -0.17100737145E+03  0.14505109137E+03  0.68831038266E+02  0.23461274907E+03  0.47000000000E+01 0. -1.
        -13    1    4    4    0    0 -0.24972745818E+02 -0.11583763695E+02  0.15176577272E+02  0.31434855061E+02  0.00000000000E+00 0.  1.
         14    1    4    4    0    0  0.63062534783E+01  0.70752307425E+02 -0.27386911828E+01  0.71085570043E+02  0.00000000000E+00 0. -1.
         -5    1    5    5    0  502  0.13972220943E+02 -0.10614627600E+03 -0.10913549423E+03  0.15295391779E+03  0.47000000000E+01 0.  1.
         11    1    6    6    0    0  0.89690901846E+02 -0.93741796260E+02 -0.82983012923E+02  0.15400702151E+03  0.00000000000E+00 0. -1.
        -12    1    6    6    0    0  0.86010741004E+02 -0.43315628383E+01 -0.38809117996E+02  0.94460349589E+02  0.00000000000E+00 0.  1.
</event>
<event>
12    1  0.8297444E-002  0.1872391E+03  0.7818608E-02  0.1161872E+00
         21   -1    0    0  501  502  0.00000000000E+00  0.00000000000E+00  0.28529973393E+03  0.28529973393E+03  0.00000000000E+00 0. -1.
         21   -1    0    0  502  503 -0.00000000000E+00 -0.00000000000E+00 -0.12049642419E+03  0.12049642419E+03  0.00000000000E+00 0.  1.
         -6    2    1    2    0  503 -0.67581753819E+02 -0.33340258931E+02  0.88270532272E+02  0.20351970762E+03  0.16718169220E+03 0.  0.
        -24    2    3    3    0    0  0.46247753400E+01  0.51514541041E+01 -0.46405895339E+01  0.79624746542E+02  0.79187367454E+02 0.  0.
          6    2    1    2  501    0  0.67581753819E+02  0.33340258931E+02  0.76532777471E+02  0.20227645050E+03  0.17140487183E+03 0.  0.
         24    2    5    5    0    0  0.21012016696E+02 -0.40549688760E+02  0.12413610688E+02  0.93824514909E+02  0.81013330776E+02 0.  0.
          5    1    5    5  501    0  0.46569737123E+02  0.73889947690E+02  0.64119166784E+02  0.10845193560E+03  0.47000000000E+01 0. -1.
        -13    1    6    6    0    0  0.49725357418E+02 -0.13023001954E+02  0.16132340942E+02  0.53874503937E+02  0.00000000000E+00 0.  1.
         14    1    6    6    0    0 -0.28713340722E+02 -0.27526686806E+02 -0.37187302542E+01  0.39950010972E+02  0.00000000000E+00 0. -1.
         -5    1    3    3    0  503 -0.72206529159E+02 -0.38491713035E+02  0.92911121806E+02  0.12389496108E+03  0.47000000000E+01 0.  1.
         13    1    4    4    0    0  0.31090759464E+02 -0.21624007189E+02 -0.14751201894E+02  0.40642723436E+02  0.00000000000E+00 0. -1.
        -14    1    4    4    0    0 -0.26465984124E+02  0.26775461293E+02  0.10110612360E+02  0.38982023106E+02  0.00000000000E+00 0.  1.
</event>
<event>
12    1  0.8297444E-002  0.1905164E+03  0.7818608E-02  0.1158737E+00
         21   -1    0    0  501  502  0.00000000000E+00  0.00000000000E+00  0.46231647646E+03  0.46231647646E+03  0.00000000000E+00 0.  1.
         21   -1    0    0  502  503 -0.00000000000E+00 -0.00000000000E+00 -0.84160610225E+02  0.84160610225E+02  0.00000000000E+00 0.  1.
         -6    2    1    2    0  503  0.65442235764E+02  0.34330193047E+02  0.10883602041E+03  0.21658363524E+03  0.17205215296E+03 0.  0.
        -24    2    3    3    0    0  0.10216384267E+03  0.57049751293E+02  0.68239798550E+02  0.15712946827E+03  0.79629610201E+02 0.  0.
          6    2    1    2  501    0 -0.65442235764E+02 -0.34330193047E+02  0.26931984582E+03  0.32989345144E+03  0.17559971974E+03 0.  0.
         24    2    5    5    0    0 -0.10540785076E+03 -0.52339310049E+02  0.18251746601E+03  0.23253677824E+03  0.83129474037E+02 0.  0.
          5    1    5    5  501    0  0.39965614997E+02  0.18009117002E+02  0.86802379809E+02  0.97356673206E+02  0.47000000000E+01 0. -1.
        -11    1    6    6    0    0 -0.73260124385E+02  0.42256969326E+01  0.12848495855E+03  0.14796380271E+03  0.00000000000E+00 0.  1.
         12    1    6    6    0    0 -0.32147726377E+02 -0.56565006982E+02  0.54032507461E+02  0.84572975522E+02  0.00000000000E+00 0. -1.
         -5    1    3    3    0  503 -0.36721606908E+02 -0.22719558247E+02  0.40596221862E+02  0.59454166971E+02  0.47000000000E+01 0.  1.
         13    1    4    4    0    0  0.13949192931E+02 -0.92933279294E+01 -0.12046175834E+02  0.20641130775E+02  0.00000000000E+00 0. -1.
        -14    1    4    4    0    0  0.88214649741E+02  0.66343079223E+02  0.80285974384E+02  0.13648833750E+03  0.00000000000E+00 0.  1.
</event>
<event>
12    1  0.8297444E-002  0.1847491E+03  0.7818608E-02  0.1163843E+00
         21   -1    0    0  501  502  0.00000000000E+00  0.00000000000E+00  0.56099056034E+02  0.56099056034E+02  0.00000000000E+00 0. -1.
         21   -1    0    0  502  503 -0.00000000000E+00 -0.00000000000E+00 -0.66427265466E+03  0.66427265466E+03  0.00000000000E+00 0. -1.
         -6    2    1    2    0  503  0.44050552090E+02  0.59085625473E+02 -0.41379047639E+03  0.45219817485E+03  0.16682046850E+03 0.  0.
        -24    2    3    3    0    0  0.26239478305E+01 -0.11759711666E+02 -0.11172415750E+03  0.13914645973E+03  0.82062622216E+02 0.  0.
          6    2    1    2  501    0 -0.44050552090E+02 -0.59085625473E+02 -0.19438312224E+03  0.26817353584E+03  0.16941276469E+03 0.  0.
         24    2    5    5    0    0 -0.55293300493E+02 -0.22323724841E+02 -0.20516025363E+03  0.22797312178E+03  0.79531860382E+02 0.  0.
          5    1    5    5  501    0  0.11242748403E+02 -0.36761900632E+02  0.10777131390E+02  0.40200414062E+02  0.47000000000E+01 0. -1.
        -11    1    6    6    0    0 -0.68217816439E+02 -0.28730686388E+02 -0.11566453784E+03  0.13732227836E+03  0.00000000000E+00 0.  1.
         12    1    6    6    0    0  0.12924515946E+02  0.64069615468E+01 -0.89495715790E+02  0.90650843424E+02  0.00000000000E+00 0. -1.
         -5    1    3    3    0  503  0.41426604259E+02  0.70845337139E+02 -0.30206631889E+03  0.31305171513E+03  0.47000000000E+01 0.  1.
         13    1    4    4    0    0 -0.42991842628E+01  0.34419127955E+02 -0.61219228638E+02  0.70363010947E+02  0.00000000000E+00 0. -1.
        -14    1    4    4    0    0  0.69231320933E+01 -0.46178839621E+02 -0.50504928861E+02  0.68783448780E+02  0.00000000000E+00 0.  1.
</event>
<event>
12    1  0.8297444E-002  0.2114478E+03  0.7818608E-02  0.1140480E+00
         21   -1    0    0  503  502  0.00000000000E+00  0.00000000000E+00  0.50194887407E+03  0.50194887407E+03  0.00000000000E+00 0.  1.
         21   -1    0    0  501  503 -0.00000000000E+00 -0.00000000000E+00 -0.13875044363E+03  0.13875044363E+03  0.00000000000E+00 0. -1.
          6    2    1    2  501    0  0.87665921504E+02  0.85257243661E+02 -0.10236059598E+02  0.21169539810E+03  0.17249942976E+03 0.  0.
         24    2    3    3    0    0  0.10611648457E+02  0.19811888992E+02  0.46844634560E+02  0.95502665586E+02  0.80132523476E+02 0.  0.
         -6    2    1    2    0  502 -0.87665921504E+02 -0.85257243661E+02  0.37343449003E+03  0.42900391960E+03  0.17215380709E+03 0.  0.
        -24    2    5    5    0    0 -0.24771194848E+02  0.18890589438E+02  0.11320552973E+03  0.14169969137E+03  0.79327448643E+02 0.  0.
          5    1    3    3  501    0  0.77054273047E+02  0.65445354669E+02 -0.57080694157E+02  0.11619273251E+03  0.47000000000E+01 0. -1.
        -11    1    4    4    0    0  0.18596823713E+02 -0.28030500166E+02  0.11741865559E+02  0.35628951691E+02  0.00000000000E+00 0.  1.
         12    1    4    4    0    0 -0.79851752563E+01  0.47842389157E+02  0.35102769000E+02  0.59873713896E+02  0.00000000000E+00 0. -1.
         -5    1    5    5    0  502 -0.62894726656E+02 -0.10414783310E+03  0.26022896030E+03  0.28730422823E+03  0.47000000000E+01 0.  1.
         13    1    6    6    0    0 -0.39864081548E+02  0.28998088072E+02  0.32663975882E+02  0.59135179292E+02  0.00000000000E+00 0. -1.
        -14    1    6    6    0    0  0.15092886700E+02 -0.10107498634E+02  0.80541553851E+02  0.82564512076E+02  0.00000000000E+00 0.  1.
</event>
<event>
12    1  0.8297444E-002  0.2296728E+03  0.7818608E-02  0.1127314E+00
         21   -1    0    0  503  502  0.00000000000E+00  0.00000000000E+00  0.49704064608E+03  0.49704064608E+03  0.00000000000E+00 0. -1.
         21   -1    0    0  501  503 -0.00000000000E+00 -0.00000000000E+00 -0.10595386195E+03  0.10595386195E+03  0.00000000000E+00 0.  1.
          6    2    1    2  501    0  0.10579597243E+03 -0.11116627154E+03  0.16760995082E+03  0.28432851158E+03  0.17087679529E+03 0.  0.
         24    2    3    3    0    0  0.40555762598E+02 -0.62441678141E+02  0.17033083959E+03  0.20272052045E+03  0.80865823727E+02 0.  0.
         -6    2    1    2    0  502 -0.10579597243E+03  0.11116627154E+03  0.22347683331E+03  0.31866599646E+03  0.16749744644E+03 0.  0.
        -24    2    5    5    0    0 -0.10151229272E+03  0.13895828211E+03  0.15435204036E+03  0.24389252013E+03  0.77748693029E+02 0.  0.
          5    1    3    3  501    0  0.65240209830E+02 -0.48724593397E+02 -0.27208887621E+01  0.81607991129E+02  0.47000000000E+01 0. -1.
        -11    1    4    4    0    0  0.27556876300E+02 -0.53552855223E+02  0.41995945728E+02  0.73423083506E+02  0.00000000000E+00 0.  1.
         12    1    4    4    0    0  0.12998886298E+02 -0.88888229180E+01  0.12833489386E+03  0.12929743694E+03  0.00000000000E+00 0. -1.
         -5    1    5    5    0  502 -0.42836797101E+01 -0.27792010575E+02  0.69124792941E+02  0.74773476332E+02  0.47000000000E+01 0.  1.
         11    1    6    6    0    0 -0.83628590693E+02  0.56511480480E+02  0.60410221791E+02  0.11762943298E+03  0.00000000000E+00 0. -1.
        -12    1    6    6    0    0 -0.17883702026E+02  0.82446801633E+02  0.93941818574E+02  0.12626308714E+03  0.00000000000E+00 0.  1.
</event>
<event>
12    1  0.8297444E-002  0.2803284E+03  0.7818608E-02  0.1095983E+00
         21   -1    0    0  503  502  0.00000000000E+00  0.00000000000E+00  0.54254210075E+02  0.54254210075E+02  0.00000000000E+00 0. -1.
         21   -1    0    0  501  503 -0.00000000000E+00 -0.00000000000E+00 -0.16863989455E+04  0.16863989455E+04  0.00000000000E+00 0. -1.
          6    2    1    2  501    0  0.16212850058E+03 -0.14561104221E+03 -0.11506886917E+04  0.11835320678E+04  0.17080826701E+03 0.  0.
         24    2    3    3    0    0  0.18401994456E+03 -0.99364013196E+02 -0.98218775147E+03  0.10073711191E+04  0.79795020417E+02 0.  0.
         -6    2    1    2    0  502 -0.16212850058E+03  0.14561104221E+03 -0.48145604378E+03  0.55712108780E+03  0.17633989355E+03 0.  0.
        -24    2    5    5    0    0 -0.42981171952E+01  0.45108967637E+02 -0.13809025806E+03  0.16605427800E+03  0.80323166646E+02 0.  0.
          5    1    3    3  501    0 -0.21891443980E+02 -0.46247029019E+02 -0.16850094022E+03  0.17616094876E+03  0.47000000000E+01 0. -1.
        -13    1    4    4    0    0  0.79505316583E+02 -0.62880005301E+01 -0.26865951133E+03  0.28024733245E+03  0.00000000000E+00 0.  1.
         14    1    4    4    0    0  0.10451462798E+03 -0.93076012666E+02 -0.71352824014E+03  0.72712378662E+03  0.00000000000E+00 0. -1.
         -5    1    5    5    0  502 -0.15783038339E+03  0.10050207458E+03 -0.34336578573E+03  0.39106680979E+03  0.47000000000E+01 0.  1.
         13    1    6    6    0    0 -0.14948798246E+02  0.44283156958E+02 -0.26053421031E+02  0.53509301122E+02  0.00000000000E+00 0. -1.
        -14    1    6    6    0    0  0.10650681051E+02  0.82581067843E+00 -0.11203683703E+03  0.11254497688E+03  0.00000000000E+00 0.  1.
</event>
<event>
12    1  0.8297444E-002  0.2688643E+03  0.7818608E-02  0.1101962E+00
         21   -1    0    0  503  502  0.00000000000E+00  0.00000000000E+00  0.81545700064E+03  0.81545700064E+03  0.00000000000E+00 0.  1.
         21   -1    0    0  501  503 -0.00000000000E+00 -0.00000000000E+00 -0.13072814296E+03  0.13072814296E+03  0.00000000000E+00 0. -1.
          6    2    1    2  501    0 -0.13640909493E+03  0.15563569252E+03  0.73817246386E+02  0.27881352183E+03  0.17163357516E+03 0.  0.
         24    2    3    3    0    0 -0.12283286936E+03  0.42066131978E+02  0.55575198373E+02  0.16289449277E+03  0.81169821015E+02 0.  0.
         -6    2    1    2    0  502  0.13640909493E+03 -0.15563569252E+03  0.61091161129E+03  0.66737162177E+03  0.17129499343E+03 0.  0.
        -24    2    5    5    0    0  0.18660631058E+02 -0.34487067439E+02  0.12883663185E+03  0.15652911581E+03  0.79780382402E+02 0.  0.
          5    1    3    3  501    0 -0.13576225567E+02  0.11356956054E+03  0.18242048012E+02  0.11591902906E+03  0.47000000000E+01 0. -1.
        -11    1    4    4    0    0 -0.99205960426E+02  0.26998272315E+02  0.76306543729E+02  0.12803678342E+03  0.00000000000E+00 0.  1.
         12    1    4    4    0    0 -0.23626908938E+02  0.15067859663E+02 -0.20731345356E+02  0.34857709349E+02  0.00000000000E+00 0. -1.
         -5    1    5    5    0  502  0.11774846387E+03 -0.12114862508E+03  0.48207497944E+03  0.51084250597E+03  0.47000000000E+01 0.  1.
         11    1    6    6    0    0 -0.62194151764E+01  0.19293769230E+02  0.77165816964E+01  0.21690465401E+02  0.00000000000E+00 0. -1.
        -12    1    6    6    0    0  0.24880046234E+02 -0.53780836670E+02  0.12112005016E+03  0.13483865041E+03  0.00000000000E+00 0.  1.
</event>
<event>
12    1  0.8297444E-002  0.2319105E+03  0.7818608E-02  0.1126235E+00
         21   -1    0    0  503  502  0.00000000000E+00  0.00000000000E+00  0.29609565551E+03  0.29609565551E+03  0.00000000000E+00 0. -1.
         21   -1    0    0  501  503 -0.00000000000E+00 -0.00000000000E+00 -0.24460655298E+03  0.24460655298E+03  0.00000000000E+00 0. -1.
          6    2    1    2  501    0  0.17456685875E+00  0.14561705611E+03 -0.11561983486E+03  0.25913400006E+03  0.18049411700E+03 0.  0.
         24    2    3    3    0    0 -0.62336197068E+02  0.56565371375E+02 -0.70062151084E+02  0.14108574420E+03  0.88944024526E+02 0.  0.
         -6    2    1    2    0  502 -0.17456685875E+00 -0.14561705611E+03  0.16710893739E+03  0.28156820843E+03  0.17364014955E+03 0.  0.
        -24    2    5    5    0    0 -0.12081137595E+01 -0.17593448321E+03  0.12628519131E+03  0.23049098406E+03  0.78890698229E+02 0.  0.
          5    1    3    3  501    0  0.62510763926E+02  0.89051684738E+02 -0.45557683771E+02  0.11804825586E+03  0.47000000000E+01 0. -1.
        -13    1    4    4    0    0 -0.28227207907E+01  0.22518010891E+02  0.18362727378E+02  0.29192778626E+02  0.00000000000E+00 0.  1.
         14    1    4    4    0    0 -0.59513476277E+02  0.34047360484E+02 -0.88424878462E+02  0.11189296558E+03  0.00000000000E+00 0. -1.
         -5    1    5    5    0  502  0.10335469007E+01  0.30317427099E+02  0.40823746080E+02  0.51077224368E+02  0.47000000000E+01 0.  1.
         13    1    6    6    0    0 -0.28714152346E+02 -0.13203753599E+03  0.64103145751E+02  0.14955810493E+03  0.00000000000E+00 0. -1.
        -14    1    6    6    0    0  0.27506038587E+02 -0.43896947217E+02  0.62182045557E+02  0.80932879125E+02  0.00000000000E+00 0.  1.
</event>
<event>
12    1  0.8297444E-002  0.1730291E+03  0.7818608E-02  0.1174948E+00
         21   -1    0    0  501  502  0.00000000000E+00  0.00000000000E+00  0.15511640989E+03  0.15511640989E+03  0.00000000000E+00 0. -1.
         21   -1    0    0  502  503 -0.00000000000E+00 -0.00000000000E+00 -0.28492380906E+03  0.28492380906E+03  0.00000000000E+00 0. -1.
         -6    2    1    2    0  503 -0.11801312438E+01  0.12021593537E+02 -0.19063752814E+03  0.25745239603E+03  0.17260694558E+03 0.  0.
        -24    2    3    3    0    0 -0.34362004574E+02 -0.49604052217E+02 -0.13864655261E+03  0.17013740036E+03  0.77990762876E+02 0.  0.
          6    2    1    2  501    0  0.11801312438E+01 -0.12021593537E+02  0.60830128973E+02  0.18258782292E+03  0.17173263251E+03 0.  0.
         24    2    5    5    0    0 -0.65502501278E+02 -0.23514460943E+02  0.20480405434E+02  0.10366476120E+03  0.74050173271E+02 0.  0.
          5    1    5    5  501    0  0.66682632522E+02  0.11492867406E+02  0.40349723539E+02  0.78923061718E+02  0.47000000000E+01 0. -1.
        -11    1    6    6    0    0 -0.57816755351E+02 -0.48311141023E+02  0.11626245498E+02  0.76235904472E+02  0.00000000000E+00 0.  1.
         12    1    6    6    0    0 -0.76857459269E+01  0.24796680079E+02  0.88541599361E+01  0.27428856731E+02  0.00000000000E+00 0. -1.
         -5    1    3    3    0  503  0.33181873330E+02  0.61625645754E+02 -0.51990975529E+02  0.87314995669E+02  0.47000000000E+01 0.  1.
         13    1    4    4    0    0 -0.10323372518E+01 -0.22451932609E+02 -0.12197483619E+03  0.12402828573E+03  0.00000000000E+00 0. -1.
        -14    1    4    4    0    0 -0.33329667322E+02 -0.27152119608E+02 -0.16671716424E+02  0.46109114625E+02  0.00000000000E+00 0.  1.
</event>
<event>
12    1  0.8297444E-002  0.2240184E+03  0.7818608E-02  0.1132408E+00
         21   -1    0    0  503  502  0.00000000000E+00  0.00000000000E+00  0.27231992498E+03  0.27231992498E+03  0.00000000000E+00 0.  1.
         21   -1    0    0  501  503 -0.00000000000E+00 -0.00000000000E+00 -0.22610377443E+03  0.22610377443E+03  0.00000000000E+00 0.  1.
          6    2    1    2  501    0 -0.79159738991E+01 -0.13119968704E+03 -0.92443580527E+02  0.23496446011E+03  0.17142479812E+03 0.  0.
         24    2    3    3    0    0  0.13672656485E+01 -0.36121614552E+02  0.18047136999E+02  0.88826487411E+02  0.79106290892E+02 0.  0.
         -6    2    1    2    0  502  0.79159738991E+01  0.13119968704E+03  0.13865973107E+03  0.26345923930E+03  0.18140625466E+03 0.  0.
        -24    2    5    5    0    0 -0.19989985461E+02  0.43890511406E+02 -0.47993547293E+01  0.93152944595E+02  0.79551623307E+02 0.  0.
          5    1    3    3  501    0 -0.92832395476E+01 -0.95078072490E+02 -0.11049071753E+03  0.14613797270E+03  0.47000000000E+01 0. -1.
        -13    1    4    4    0    0  0.28996731820E+02 -0.17110615124E+02 -0.19156828637E+02  0.38737161610E+02  0.00000000000E+00 0.  1.
         14    1    4    4    0    0 -0.27629466171E+02 -0.19010999428E+02  0.37203965636E+02  0.50089325801E+02  0.00000000000E+00 0. -1.
         -5    1    5    5    0  502  0.27905959360E+02  0.87309175636E+02  0.14345908580E+03  0.17030629471E+03  0.47000000000E+01 0.  1.
         13    1    6    6    0    0  0.15198018170E+02  0.53998916942E+02  0.88064257776E+00  0.56103817326E+02  0.00000000000E+00 0. -1.
        -14    1    6    6    0    0 -0.35188003631E+02 -0.10108405536E+02 -0.56799973071E+01  0.37049127269E+02  0.00000000000E+00 0.  1.
</event>
<event>
12    1  0.8297444E-002  0.1792846E+03  0.7818608E-02  0.1169405E+00
         21   -1    0    0  501  502  0.00000000000E+00  0.00000000000E+00  0.20116831215E+03  0.20116831215E+03  0.00000000000E+00 0.  1.
         21   -1    0    0  502  503 -0.00000000000E+00 -0.00000000000E+00 -0.15655541471E+03  0.15655541471E+03  0.00000000000E+00 0.  1.
         -6    2    1    2    0  503  0.18979672344E+02  0.42898195359E+02  0.19507772691E+02  0.18034282377E+03  0.17303900648E+03 0.  0.
        -24    2    3    3    0    0  0.10216567909E+02  0.94843258284E+02  0.10331653898E+01  0.12432066141E+03  0.79717861986E+02 0.  0.
          6    2    1    2  501    0 -0.18979672344E+02 -0.42898195359E+02  0.25105124749E+02  0.17738090308E+03  0.16921357618E+03 0.  0.
         24    2    5    5    0    0 -0.28760176871E+02  0.37608630976E+02  0.25914446672E+02  0.96142043187E+02  0.79562409618E+02 0.  0.
          5    1    5    5  501    0  0.97805045269E+01 -0.80506826335E+02 -0.80932192271E+00  0.81238859896E+02  0.47000000000E+01 0. -1.
        -11    1    6    6    0    0 -0.55050307256E+02  0.36880536682E+02  0.17624915779E+02  0.68566376389E+02  0.00000000000E+00 0.  1.
         12    1    6    6    0    0  0.26290130384E+02  0.72809429377E+00  0.82895308925E+01  0.27575666798E+02  0.00000000000E+00 0. -1.
         -5    1    3    3    0  503  0.87631044355E+01 -0.51945062925E+02  0.18474607301E+02  0.56022162370E+02  0.47000000000E+01 0.  1.
         11    1    4    4    0    0 -0.30485245440E+02  0.47674129923E+02  0.18639413898E+02  0.59578524688E+02  0.00000000000E+00 0. -1.
        -12    1    4    4    0    0  0.40701813349E+02  0.47169128361E+02 -0.17606248508E+02  0.64742136717E+02  0.00000000000E+00 0.  1.
</event>
<event>
12    1  0.8297444E-002  0.2006339E+03  0.7818608E-02  0.1149474E+00
         21   -1    0    0  503  502  0.00000000000E+00  0.00000000000E+00  0.93248192990E+03  0.93248192990E+03  0.00000000000E+00 0.  1.
         21   -1    0    0  501  503 -0.00000000000E+00 -0.00000000000E+00 -0.44904233103E+02  0.44904233103E+02  0.00000000000E+00 0.  1.
          6    2    1    2  501    0 -0.49591240161E+02 -0.88349536161E+02  0.34175880546E+03  0.39629919900E+03  0.17317344594E+03 0.  0.
         24    2    3    3    0    0 -0.94716027342E+02 -0.31560469894E+02  0.21695731728E+03  0.25187362676E+03  0.80016606031E+02 0.  0.
         -6    2    1    2    0  502  0.49591240161E+02  0.88349536161E+02  0.54581889134E+03  0.58108696400E+03  0.17169410575E+03 0.  0.
        -24    2    5    5    0    0 -0.29927388913E+02  0.39074924738E+02  0.37154375325E+03  0.38323572328E+03  0.80014752800E+02 0.  0.
          5    1    3    3  501    0  0.45124787181E+02 -0.56789066267E+02  0.12480148818E+03  0.14442557224E+03  0.47000000000E+01 0. -1.
        -13    1    4    4    0    0 -0.18641933515E+02  0.58594672316E+01  0.65719082915E+00  0.19552159503E+02  0.00000000000E+00 0.  1.
         14    1    4    4    0    0 -0.76074093827E+02 -0.37419937125E+02  0.21630012645E+03  0.23232146726E+03  0.00000000000E+00 0. -1.
         -5    1    5    5    0  502  0.79518629074E+02  0.49274611423E+02  0.17427513809E+03  0.19785124072E+03  0.47000000000E+01 0.  1.
         13    1    6    6    0    0  0.45621342905E+01  0.30465091107E+02  0.43675870996E+02  0.53446389519E+02  0.00000000000E+00 0. -1.
        -14    1    6    6    0    0 -0.34489523204E+02  0.86098336314E+01  0.32786788226E+03  0.32978933376E+03  0.00000000000E+00 0.  1.
</event>
<event>
12    1  0.8297444E-002  0.1956401E+03  0.7818608E-02  0.1154157E+00
         21   -1    0    0  503  502  0.00000000000E+00  0.00000000000E+00  0.14120379033E+04  0.14120379033E+04  0.00000000000E+00 0. -1.
         21   -1    0    0  501  503 -0.00000000000E+00 -0.00000000000E+00 -0.11069244954E+03  0.11069244954E+03  0.00000000000E+00 0. -1.
          6    2    1    2  501    0  0.84562856695E+02 -0.91193331347E+01 -0.13907358937E+02  0.19300668935E+03  0.17269663729E+03 0.  0.
         24    2    3    3    0    0  0.12554966188E+03 -0.13654714825E+02  0.12639219209E+01  0.14881680760E+03  0.78712615836E+02 0.  0.
         -6    2    1    2    0  502 -0.84562856695E+02  0.91193331347E+01  0.13152528127E+04  0.13297236635E+04  0.17618462184E+03 0.  0.
        -24    2    5    5    0    0 -0.14964724155E+02 -0.23293169197E+02  0.31934067033E+03  0.33084551493E+03  0.81937636785E+02 0.  0.
          5    1    3    3  501    0 -0.40986805183E+02  0.45353816907E+01 -0.15171280858E+02  0.44189881749E+02  0.47000000000E+01 0. -1.
        -11    1    4    4    0    0  0.23040910367E+02  0.24855776320E+02  0.17453844495E+02  0.38122563589E+02  0.00000000000E+00 0.  1.
         12    1    4    4    0    0  0.10250875151E+03 -0.38510491145E+02 -0.16189922574E+02  0.11069424401E+03  0.00000000000E+00 0. -1.
         -5    1    5    5    0  502 -0.69598132540E+02  0.32412502332E+02  0.99591214241E+03  0.99887814861E+03  0.47000000000E+01 0.  1.
         11    1    6    6    0    0  0.27585969512E+01  0.14273341810E+02  0.24700200096E+03  0.24742943767E+03  0.00000000000E+00 0. -1.
        -12    1    6    6    0    0 -0.17723321106E+02 -0.37566511008E+02  0.72338669364E+02  0.83416077261E+02  0.00000000000E+00 0.  1.
</event>
<event>
12    1  0.8297444E-002  0.2203694E+03  0.7818608E-02  0.1134054E+00
         21   -1    0    0  503  502  0.00000000000E+00  0.00000000000E+00  0.39552706069E+03  0.39552706069E+03  0.00000000000E+00 0.  1.
         21   -1    0    0  501  503 -0.00000000000E+00 -0.00000000000E+00 -0.15800917911E+03  0.15800917911E+03  0.00000000000E+00 0.  1.
          6    2    1    2  501    0 -0.13380209283E+03  0.91743897996E+01 -0.14859404941E+02  0.21848852877E+03  0.17184081534E+03 0.  0.
         24    2    3    3    0    0 -0.14525316284E+03  0.32574586410E+02 -0.51700658322E+02  0.17312263678E+03  0.71686151374E+02 0.  0.
         -6    2    1    2    0  502  0.13380209283E+03 -0.91743897996E+01  0.25237728651E+03  0.33504771103E+03  0.17485852693E+03 0.  0.
        -24    2    5    5    0    0  0.12137073087E+03 -0.66668386530E+02  0.19597090119E+03  0.25341518856E+03  0.81480891018E+02 0.  0.
          5    1    3    3  501    0  0.11451070009E+02 -0.23400196611E+02  0.36841253381E+02  0.45365891995E+02  0.47000000000E+01 0. -1.
        -13    1    4    4    0    0 -0.12577250800E+03  0.14688396908E+02 -0.14464846922E+02  0.12745079273E+03  0.00000000000E+00 0.  1.
         14    1    4    4    0    0 -0.19480654848E+02  0.17886189502E+02 -0.37235811400E+02  0.45671844049E+02  0.00000000000E+00 0. -1.
         -5    1    5    5    0  502  0.12431361961E+02  0.57493996730E+02  0.56406385320E+02  0.81632522472E+02  0.47000000000E+01 0.  1.
         11    1    6    6    0    0  0.55736247394E+01  0.13846871457E+02  0.42187953121E+02  0.44750693072E+02  0.00000000000E+00 0. -1.
        -12    1    6    6    0    0  0.11579710613E+03 -0.80515257987E+02  0.15378294807E+03  0.20866449548E+03  0.00000000000E+00 0.  1.
</event>
<event>
12    1  0.8297444E-002  0.1752451E+03  0.7818608E-02  0.1172790E+00
         21   -1    0    0  503  502  0.00000000000E+00  0.00000000000E+00  0.29159549076E+03  0.29159549076E+03  0.00000000000E+00 0. -1.
         21   -1    0    0  501  503 -0.00000000000E+00 -0.00000000000E+00 -0.13814817599E+03  0.13814817599E+03  0.00000000000E+00 0. -1.
          6    2    1    2  501    0 -0.27569233980E+02  0.48698609581E+01 -0.29374023361E+02  0.17649581709E+03  0.17176775598E+03 0.  0.
         24    2    3    3    0    0 -0.31143859517E+02  0.63514139549E+02 -0.47003454286E+02  0.11497495726E+03  0.77497936577E+02 0.  0.
         -6    2    1    2    0  502  0.27569233980E+02 -0.48698609581E+01  0.18282133813E+03  0.25324784965E+03  0.17299437410E+03 0.  0.
        -24    2    5    5    0    0  0.12169660901E+02 -0.45626566800E+02  0.18854843047E+03  0.20905344380E+03  0.76960687925E+02 0.  0.
          5    1    3    3  501    0  0.35746255365E+01 -0.58644278591E+02  0.17629430926E+02  0.61520859827E+02  0.47000000000E+01 0. -1.
        -11    1    4    4    0    0  0.34763002668E+01  0.17787253985E+02  0.19857457041E+02  0.26884747870E+02  0.00000000000E+00 0.  1.
         12    1    4    4    0    0 -0.34620159783E+02  0.45726885564E+02 -0.66860911327E+02  0.88090209390E+02  0.00000000000E+00 0. -1.
         -5    1    5    5    0  502  0.15399573079E+02  0.40756705842E+02 -0.57270923437E+01  0.44194405855E+02  0.47000000000E+01 0.  1.
         13    1    6    6    0    0 -0.26868039500E+02 -0.41276400203E+02  0.84053081955E+02  0.97419471085E+02  0.00000000000E+00 0. -1.
        -14    1    6    6    0    0  0.39037700401E+02 -0.43501665970E+01  0.10449534852E+03  0.11163397272E+03  0.00000000000E+00 0.  1.
</event>
<event>
12    1  0.8297444E-002  0.2324972E+03  0.7818608E-02  0.1125173E+00
         21   -1    0    0  503  502  0.00000000000E+00  0.00000000000E+00  0.31257320348E+03  0.31257320348E+03  0.00000000000E+00 0. -1.
         21   -1    0    0  501  503 -0.00000000000E+00 -0.00000000000E+00 -0.36439288020E+03  0.36439288020E+03  0.00000000000E+00 0.  1.
          6    2    1    2  501    0  0.14971733831E+03 -0.40802982434E+02 -0.27197914804E+03  0.35677060501E+03  0.17097497730E+03 0.  0.
         24    2    3    3    0    0  0.85315328299E+01 -0.11975017205E+02 -0.12371226464E+03  0.14996237993E+03  0.83473366294E+02 0.  0.
         -6    2    1    2    0  502 -0.14971733831E+03  0.40802982434E+02  0.22015947132E+03  0.32019547867E+03  0.17313228174E+03 0.  0.
        -24    2    5    5    0    0 -0.37973244163E+02  0.72352097758E+02  0.11781877266E+03  0.16534781851E+03  0.82351955487E+02 0.  0.
          5    1    3    3  501    0  0.14118580548E+03 -0.28827965230E+02 -0.14826688340E+03  0.20680822508E+03  0.47000000000E+01 0. -1.
        -13    1    4    4    0    0  0.35510896652E+02 -0.32756600970E+02 -0.89400656284E+02  0.10161936839E+03  0.00000000000E+00 0.  1.
         14    1    4    4    0    0 -0.26979363823E+02  0.20781583766E+02 -0.34311608360E+02  0.48343011536E+02  0.00000000000E+00 0. -1.
         -5    1    5    5    0  502 -0.11174409415E+03 -0.31549115323E+02  0.10234069866E+03  0.15484766016E+03  0.47000000000E+01 0.  1.
         11    1    6    6    0    0 -0.21860432060E+02 -0.11851752923E+00  0.78198962575E+02  0.81197107609E+02  0.00000000000E+00 0. -1.
        -12    1    6    6    0    0 -0.16112812103E+02  0.72470615287E+02  0.39619810086E+02  0.84150710901E+02  0.00000000000E+00 0.  1.
</event>
<event>
12    1  0.8297444E-002  0.1964435E+03  0.7818608E-02  0.1153328E+00
         21   -1    0    0  503  502  0.00000000000E+00  0.00000000000E+00  0.23115193299E+02  0.23115193299E+02  0.00000000000E+00 0.  1.
         21   -1    0    0  501  503 -0.00000000000E+00 -0.00000000000E+00 -0.23103936694E+04  0.23103936694E+04  0.00000000000E+00 0.  1.
          6    2    1    2  501    0  0.71713802100E+02  0.60452857181E+02 -0.17630882651E+04  0.17737183456E+04  0.16970304017E+03 0.  0.
         24    2    3    3    0    0  0.38624282849E+02 -0.31736774077E+02 -0.99846469752E+03  0.10028324044E+04  0.79006461660E+02 0.  0.
         -6    2    1    2    0  502 -0.71713802100E+02 -0.60452857181E+02 -0.52419021104E+03  0.55979051708E+03  0.17260541216E+03 0.  0.
        -24    2    5    5    0    0 -0.76823435378E+01 -0.37446254573E+02 -0.45402988299E+03  0.46194424438E+03  0.76079628559E+02 0.  0.
          5    1    3    3  501    0  0.33089519252E+02  0.92189631258E+02 -0.76462356756E+03  0.77088594128E+03  0.47000000000E+01 0. -1.
        -13    1    4    4    0    0  0.61944267045E+02 -0.29718144823E+02 -0.66237919746E+03  0.66593277557E+03  0.00000000000E+00 0.  1.
         14    1    4    4    0    0 -0.23319984197E+02 -0.20186292539E+01 -0.33608550007E+03  0.33689962880E+03  0.00000000000E+00 0. -1.
         -5    1    5    5    0  502 -0.64031458563E+02 -0.23006602608E+02 -0.70160328049E+02  0.97846272699E+02  0.47000000000E+01 0.  1.
         13    1    6    6    0    0  0.31923617695E+02 -0.12007925705E+02 -0.12521362865E+03  0.12977580841E+03  0.00000000000E+00 0. -1.
        -14    1    6    6    0    0 -0.39605961233E+02 -0.25438328868E+02 -0.32881625433E+03  0.33216843597E+03  0.00000000000E+00 0.  1.
</event>
<event>
12    1  0.8297444E-002  0.2442176E+03  0.7818608E-02  0.1117085E+00
         21   -1    0    0  501  502  0.00000000000E+00  0.00000000000E+00  0.13049741566E+04  0.13049741566E+04  0.00000000000E+00 0.  1.
         21   -1    0    0  502  503 -0.00000000000E+00 -0.00000000000E+00 -0.64133720472E+02  0.64133720472E+02  0.00000000000E+00 0.  1.
         -6    2    1    2    0  503 -0.86218266694E+02 -0.15063695620E+03  0.25226855034E+03  0.35081685416E+03  0.17119568217E+03 0.  0.
        -24    2    3    3    0    0 -0.70186803035E+02 -0.17311976687E+02  0.13483213257E+03  0.17236248967E+03  0.79392896505E+02 0.  0.
          6    2    1    2  501    0  0.86218266694E+02  0.15063695620E+03  0.98857188579E+03  0.10182910229E+04  0.17180556416E+03 0.  0.
         24    2    5    5    0    0  0.25108098946E+02  0.43671489750E+02  0.67023206520E+03  0.67691381953E+03  0.80397028528E+02 0.  0.
          5    1    5    5  501    0  0.61110167748E+02  0.10696546645E+03  0.31833982060E+03  0.34137720338E+03  0.47000000000E+01 0. -1.
        -11    1    6    6    0    0  0.10038030858E+02  0.65175675797E+02  0.54378941234E+03  0.54777327039E+03  0.00000000000E+00 0.  1.
         12    1    6    6    0    0  0.15070068088E+02 -0.21504186048E+02  0.12644265286E+03  0.12914054914E+03  0.00000000000E+00 0. -1.
         -5    1    3    3    0  503 -0.16031463659E+02 -0.13332497951E+03  0.11743641777E+03  0.17845436449E+03  0.47000000000E+01 0.  1.
         13    1    4    4    0    0 -0.91348590678E+01  0.11988759806E+02  0.89756767670E+02  0.91013478972E+02  0.00000000000E+00 0. -1.
        -14    1    4    4    0    0 -0.61051943967E+02 -0.29300736493E+02  0.45075364902E+02  0.81349010702E+02  0.00000000000E+00 0.  1.
</event>
<event>
12    1  0.8297444E-002  0.2561353E+03  0.7818608E-02  0.1110016E+00
         21   -1    0    0  503  502  0.00000000000E+00  0.00000000000E+00  0.30103753568E+03  0.30103753568E+03  0.00000000000E+00 0.  1.
         21   -1    0    0  501  503 -0.00000000000E+00 -0.00000000000E+00 -0.73966340932E+03  0.73966340932E+03  0.00000000000E+00 0.  1.
          6    2    1    2  501    0 -0.16441733829E+03  0.85110665768E+02 -0.65797670976E+03  0.70607268308E+03  0.17699829559E+03 0.  0.
         24    2    3    3    0    0 -0.15284930584E+03  0.91046872156E+02 -0.66314498699E+03  0.69131263530E+03  0.80619121337E+02 0.  0.
         -6    2    1    2    0  502  0.16441733829E+03 -0.85110665768E+02  0.21935083612E+03  0.33462826193E+03  0.17200115643E+03 0.  0.
        -24    2    5    5    0    0  0.17436058925E+03 -0.73074130063E+02  0.23370598632E+03  0.31290484672E+03  0.86887924894E+02 0.  0.
          5    1    3    3  501    0 -0.11568032449E+02 -0.59362063881E+01  0.51682772275E+01  0.14760047782E+02  0.47000000000E+01 0. -1.
        -13    1    4    4    0    0 -0.96536728480E+02  0.27087089384E+02 -0.24780774398E+03  0.26732326561E+03  0.00000000000E+00 0.  1.
         14    1    4    4    0    0 -0.56312577365E+02  0.63959782772E+02 -0.41533724301E+03  0.42398936969E+03  0.00000000000E+00 0. -1.
         -5    1    5    5    0  502 -0.99432509518E+01 -0.12036535705E+02 -0.14355150195E+02  0.21723415210E+02  0.47000000000E+01 0.  1.
         13    1    6    6    0    0  0.35054556004E+02 -0.32969924460E+02  0.14793035213E+02  0.50345523200E+02  0.00000000000E+00 0. -1.
        -14    1    6    6    0    0  0.13930603324E+03 -0.40104205603E+02  0.21891295110E+03  0.26255932352E+03  0.00000000000E+00 0.  1.
</event>
<event>
12    1  0.8297444E-002  0.3393149E+03  0.7818608E-02  0.1067147E+00
         21   -1    0    0  503  502  0.00000000000E+00  0.00000000000E+00  0.36727706864E+03  0.36727706864E+03  0.00000000000E+00 0. -1.
         21   -1    0    0  501  503 -0.00000000000E+00 -0.00000000000E+00 -0.53994606177E+03  0.53994606177E+03  0.00000000000E+00 0.  1.
          6    2    1    2  501    0  0.16158304001E+03  0.24284855507E+03 -0.38039370745E+03  0.50937374055E+03  0.17227227105E+03 0.  0.
         24    2    3    3    0    0  0.17626991624E+03  0.24250738313E+03 -0.29903975345E+03  0.42657050049E+03  0.51543219788E+02 0.  0.
         -6    2    1    2    0  502 -0.16158304001E+03 -0.24284855507E+03  0.20772471432E+03  0.39784938986E+03  0.17334959057E+03 0.  0.
        -24    2    5    5    0    0 -0.17162939656E+03 -0.17153585582E+03  0.20154978282E+03  0.32541562609E+03  0.79948828335E+02 0.  0.
          5    1    3    3  501    0 -0.14686876230E+02  0.34117194638E+00 -0.81353954004E+02  0.82803240056E+02  0.47000000000E+01 0. -1.
        -13    1    4    4    0    0  0.81820926522E+02  0.10350193353E+03 -0.16710743142E+03  0.21291361604E+03  0.00000000000E+00 0.  1.
         14    1    4    4    0    0  0.94448989722E+02  0.13900544960E+03 -0.13193232203E+03  0.21365688445E+03  0.00000000000E+00 0. -1.
         -5    1    5    5    0  502  0.10046356548E+02 -0.71312699252E+02  0.61749314978E+01  0.72433763767E+02  0.47000000000E+01 0.  1.
         11    1    6    6    0    0 -0.14056928640E+03 -0.12939276079E+03  0.11138298765E+03  0.22115239262E+03  0.00000000000E+00 0. -1.
        -12    1    6    6    0    0 -0.31060110165E+02 -0.42143095028E+02  0.90166795175E+02  0.10426323347E+03  0.00000000000E+00 0.  1.
</event>
<event>
12    1  0.8297444E-002  0.2419977E+03  0.7818608E-02  0.1118574E+00
         21   -1    0    0  503  502  0.00000000000E+00  0.00000000000E+00  0.23340442921E+03  0.23340442921E+03  0.00000000000E+00 0.  1.
         21   -1    0    0  501  503 -0.00000000000E+00 -0.00000000000E+00 -0.25070553967E+03  0.25070553967E+03  0.00000000000E+00 0.  1.
          6    2    1    2  501    0  0.63885678899E+02  0.15633085227E+03 -0.18996565946E+02  0.24274218905E+03  0.17332681699E+03 0.  0.
         24    2    3    3    0    0  0.83561742376E+02  0.11112031737E+03 -0.68355864690E+02  0.17281672651E+03  0.76568968924E+02 0.  0.
         -6    2    1    2    0  502 -0.63885678899E+02 -0.15633085227E+03  0.16954554844E+01  0.24136777983E+03  0.17243785904E+03 0.  0.
        -24    2    5    5    0    0 -0.83835113294E+02 -0.39787089150E+02  0.13143455945E+01  0.12303492767E+03  0.80774545736E+02 0.  0.
          5    1    3    3  501    0 -0.19676063477E+02  0.45210534892E+02  0.49359298744E+02  0.69925462542E+02  0.47000000000E+01 0. -1.
        -11    1    4    4    0    0  0.86955544670E+02  0.10383682851E+03 -0.36933437617E+02  0.14038316323E+03  0.00000000000E+00 0.  1.
         12    1    4    4    0    0 -0.33938022942E+01  0.72834888656E+01 -0.31422427073E+02  0.32433563283E+02  0.00000000000E+00 0. -1.
         -5    1    5    5    0  502  0.19949434396E+02 -0.11654376312E+03  0.38110988992E+00  0.11833285215E+03  0.47000000000E+01 0.  1.
         13    1    6    6    0    0 -0.63893372319E+01 -0.22093578425E+02  0.30676981710E+02  0.38340931714E+02  0.00000000000E+00 0. -1.
        -14    1    6    6    0    0 -0.77445776063E+02 -0.17693510726E+02 -0.29362636116E+02  0.84693995958E+02  0.00000000000E+00 0.  1.
</event>
<event>
12    1  0.8297444E-002  0.2295446E+03  0.7818608E-02  0.1127417E+00
         21   -1    0    0  503  502  0.00000000000E+00  0.00000000000E+00  0.41785468008E+03  0.41785468008E+03  0.00000000000E+00 0. -1.
         21   -1    0    0  501  503 -0.00000000000E+00 -0.00000000000E+00 -0.18441866814E+03  0.18441866814E+03  0.00000000000E+00 0.  1.
          6    2    1    2  501    0  0.46040424570E+02 -0.14262576684E+03 -0.54213028550E+02  0.23585961412E+03  0.17386453073E+03 0.  0.
         24    2    3    3    0    0  0.84184670834E+02 -0.13465353721E+03 -0.11164621027E+02  0.17760332383E+03  0.78737906909E+02 0.  0.
         -6    2    1    2    0  502 -0.46040424570E+02  0.14262576684E+03  0.28764904049E+03  0.36641373409E+03  0.17045592972E+03 0.  0.
        -24    2    5    5    0    0 -0.55445710303E+02  0.13549146865E+03  0.14001239212E+03  0.21823132099E+03  0.81174347232E+02 0.  0.
          5    1    3    3  501    0 -0.38144246264E+02 -0.79722296294E+01 -0.43048407524E+02  0.58256290292E+02  0.47000000000E+01 0. -1.
        -13    1    4    4    0    0  0.18441747826E+02 -0.65108643884E+02 -0.38784602498E+02  0.77996659943E+02  0.00000000000E+00 0.  1.
         14    1    4    4    0    0  0.65742923008E+02 -0.69544893331E+02  0.27619981471E+02  0.99606663886E+02  0.00000000000E+00 0. -1.
         -5    1    5    5    0  502  0.94052857330E+01  0.71342981986E+01  0.14763664837E+03  0.14818241310E+03  0.47000000000E+01 0.  1.
         13    1    6    6    0    0 -0.54954795203E+02  0.76829467292E+02  0.12676675271E+03  0.15809049988E+03  0.00000000000E+00 0. -1.
        -14    1    6    6    0    0 -0.49091510046E+00  0.58662001353E+02  0.13245639406E+02  0.60140821109E+02  0.00000000000E+00 0.  1.
</event>
<event>
12    1  0.8297444E-002  0.3374214E+03  0.7818608E-02  0.1067926E+00
         21   -1    0    0  503  502  0.00000000000E+00  0.00000000000E+00  0.16542017373E+04  0.16542017373E+04  0.00000000000E+00 0.  1.
         21   -1    0    0  501  503 -0.00000000000E+00 -0.00000000000E+00 -0.15246598531E+03  0.15246598531E+03  0.00000000000E+00 0. -1.
          6    2    1    2  501    0  0.12022514878E+03  0.26461457683E+03  0.81728971510E+02  0.34717840470E+03  0.17140087292E+03 0.  0.
         24    2    3    3    0    0 -0.64480394327E+00  0.59303658121E+02  0.35729248441E+02  0.10448480500E+03  0.78250595167E+02 0.  0.
         -6    2    1    2    0  502 -0.12022514878E+03 -0.26461457683E+03  0.14200067805E+04  0.14594893179E+04  0.17092352624E+03 0.  0.
        -24    2    5    5    0    0 -0.14237163816E+03 -0.24135477283E+03  0.13673022239E+04  0.13975914524E+04  0.72281993196E+02 0.  0.
          5    1    3    3  501    0  0.12086995272E+03  0.20531091871E+03  0.45999723069E+02  0.24269359970E+03  0.47000000000E+01 0. -1.
        -11    1    4    4    0    0  0.20890468541E+02 -0.19889594513E+01 -0.11720213620E+02  0.24036036339E+02  0.00000000000E+00 0.  1.
         12    1    4    4    0    0 -0.21535272485E+02  0.61292617572E+02  0.47449462062E+02  0.80448768666E+02  0.00000000000E+00 0. -1.
         -5    1    5    5    0  502  0.22146489384E+02 -0.23259804001E+02  0.52704556580E+02  0.61897865540E+02  0.47000000000E+01 0.  1.
         11    1    6    6    0    0 -0.34420763290E+01 -0.93099486839E+01  0.12027177305E+02  0.15594102343E+02  0.00000000000E+00 0. -1.
        -12    1    6    6    0    0 -0.13892956183E+03 -0.23204482415E+03  0.13552750466E+04  0.13819973501E+04  0.00000000000E+00 0.  1.
</event>
<event>
12    1  0.8297444E-002  0.2447481E+03  0.7818608E-02  0.1116825E+00
         21   -1    0    0  503  502  0.00000000000E+00  0.00000000000E+00  0.10343646919E+03  0.10343646919E+03  0.00000000000E+00 0. -1.
         21   -1    0    0  501  503 -0.00000000000E+00 -0.00000000000E+00 -0.61598780594E+03  0.61598780594E+03  0.00000000000E+00 0.  1.
          6    2    1    2  501    0 -0.32457886514E+02 -0.17002130795E+03 -0.34646689462E+03  0.42364451345E+03  0.17168169721E+03 0.  0.
         24    2    3    3    0    0 -0.20397477595E+02 -0.18849579482E+03 -0.24729834027E+03  0.32194273225E+03  0.80894573309E+02 0.  0.
         -6    2    1    2    0  502  0.32457886514E+02  0.17002130795E+03 -0.16608444212E+03  0.29577976168E+03  0.17303429125E+03 0.  0.
        -24    2    5    5    0    0  0.67102813189E+02  0.10499584423E+03 -0.46417177769E+02  0.15517063668E+03  0.79977854753E+02 0.  0.
          5    1    3    3  501    0 -0.12060408920E+02  0.18474486864E+02 -0.99168554351E+02  0.10170178121E+03  0.47000000000E+01 0. -1.
        -13    1    4    4    0    0  0.30342597398E+02 -0.94005727450E+02 -0.11357185493E+03  0.15052015228E+03  0.00000000000E+00 0.  1.
         14    1    4    4    0    0 -0.50740074992E+02 -0.94490067367E+02 -0.13372648534E+03  0.17142257997E+03  0.00000000000E+00 0. -1.
         -5    1    5    5    0  502 -0.34644926674E+02  0.65025463723E+02 -0.11966726435E+03  0.14060912500E+03  0.47000000000E+01 0.  1.
         11    1    6    6    0    0  0.23778891059E+02 -0.54018243596E+01 -0.24502433174E+02  0.34568549259E+02  0.00000000000E+00 0. -1.
        -12    1    6    6    0    0  0.43323922130E+02  0.11039766859E+03 -0.21914744596E+02  0.12060208742E+03  0.00000000000E+00 0.  1.
</event>
<event>
12    1  0.8297444E-002  0.2176657E+03  0.7818608E-02  0.1136311E+00
         21   -1    0    0  503  502  0.00000000000E+00  0.00000000000E+00  0.79722570972E+02  0.79722570972E+02  0.00000000000E+00 0. -1.
         21   -1    0    0  501  503 -0.00000000000E+00 -0.00000000000E+00 -0.76875071313E+03  0.76875071313E+03  0.00000000000E+00 0. -1.
          6    2    1    2  501    0 -0.65242950866E+01  0.13031309667E+03 -0.55426804059E+03  0.59547580517E+03  0.17422486656E+03 0.  0.
         24    2    3    3    0    0  0.63894392333E+02  0.84775464898E+02 -0.30821340959E+03  0.33548073044E+03  0.79261856055E+02 0.  0.
         -6    2    1    2    0  502  0.65242950866E+01 -0.13031309667E+03 -0.13476010157E+03  0.25299747893E+03  0.16977446741E+03 0.  0.
        -24    2    5    5    0    0 -0.12687489649E+02 -0.70207961352E+02 -0.15314144320E+03  0.18710602513E+03  0.80412889421E+02 0.  0.
          5    1    3    3  501    0 -0.70418687420E+02  0.45537631770E+02 -0.24605463101E+03  0.25999507473E+03  0.47000000000E+01 0. -1.
        -13    1    4    4    0    0  0.59478338957E+02  0.98893040925E+02 -0.24891280808E+03  0.27436306671E+03  0.00000000000E+00 0.  1.
         14    1    4    4    0    0  0.44160533761E+01 -0.14117576027E+02 -0.59300601512E+02  0.61117663731E+02  0.00000000000E+00 0. -1.
         -5    1    5    5    0  502  0.19211784736E+02 -0.60105135316E+02  0.18381341631E+02  0.65891453803E+02  0.47000000000E+01 0.  1.
         11    1    6    6    0    0  0.10686643992E+02 -0.13267480196E+02  0.47128093009E+01  0.17675999606E+02  0.00000000000E+00 0. -1.
        -12    1    6    6    0    0 -0.23374133641E+02 -0.56940481156E+02 -0.15785425250E+03  0.16943002553E+03  0.00000000000E+00 0.  1.
</event>
<event>
12    1  0.8297444E-002  0.1862313E+03  0.7818608E-02  0.1162287E+00
         21   -1    0    0  501  502  0.00000000000E+00  0.00000000000E+00  0.19182628765E+03  0.19182628765E+03  0.00000000000E+00 0.  1.
         21   -1    0    0  502  503 -0.00000000000E+00 -0.00000000000E+00 -0.17921167523E+03  0.17921167523E+03  0.00000000000E+00 0.  1.
         -6    2    1    2    0  503  0.44819694908E+02 -0.53143574829E+02  0.68303346111E+01  0.18471685363E+03  0.17099888289E+03 0.  0.
        -24    2    3    3    0    0  0.17959387615E+02 -0.54967748826E+02  0.66726732204E+02  0.11888014531E+03  0.79599240847E+02 0.  0.
          6    2    1    2  501    0 -0.44819694908E+02  0.53143574829E+02  0.57842778082E+01  0.18632110924E+03  0.17276878561E+03 0.  0.
         24    2    5    5    0    0 -0.93257157617E+02  0.21598228606E+02 -0.16536829888E+02  0.12417918691E+03  0.77353880273E+02 0.  0.
          5    1    5    5  501    0  0.48437462708E+02  0.31545346223E+02  0.22321107697E+02  0.62141922329E+02  0.47000000000E+01 0. -1.
        -13    1    6    6    0    0 -0.39465502471E+02  0.17048866688E+02 -0.45765456461E+02  0.62790658108E+02  0.00000000000E+00 0.  1.
         14    1    6    6    0    0 -0.53791655145E+02  0.45493619187E+01  0.29228626572E+02  0.61388528802E+02  0.00000000000E+00 0. -1.
         -5    1    3    3    0  503  0.26860307293E+02  0.18241739971E+01 -0.59896397592E+02  0.65836708326E+02  0.47000000000E+01 0.  1.
         13    1    4    4    0    0  0.23567692876E+02  0.42673723571E+01 -0.62193330228E+01  0.24745236260E+02  0.00000000000E+00 0. -1.
        -14    1    4    4    0    0 -0.56083052607E+01 -0.59235121183E+02  0.72946065226E+02  0.94134909048E+02  0.00000000000E+00 0.  1.
</event>
<event>
12    1  0.8297444E-002  0.1719093E+03  0.7818608E-02  0.1176043E+00
         21   -1    0    0  503  502  0.00000000000E+00  0.00000000000E+00  0.12575944286E+03  0.12575944286E+03  0.00000000000E+00 0.  1.
         21   -1    0    0  501  503 -0.00000000000E+00 -0.00000000000E+00 -0.24627149228E+03  0.24627149228E+03  0.00000000000E+00 0.  1.
          6    2    1    2  501    0  0.91859608372E+01 -0.13336201730E+02 -0.10152589205E+03  0.19907634166E+03  0.17047476910E+03 0.  0.
         24    2    3    3    0    0 -0.44504723471E+02 -0.93292214258E+01 -0.11127951615E+03  0.14415850616E+03  0.79566572136E+02 0.  0.
         -6    2    1    2    0  502 -0.91859608372E+01  0.13336201730E+02 -0.18986157378E+02  0.17295459348E+03  0.17114491252E+03 0.  0.
        -24    2    5    5    0    0 -0.17235578913E+02  0.52346006407E+02  0.36690969277E+02  0.10433540051E+03  0.80637950157E+02 0.  0.
          5    1    3    3  501    0  0.53690684308E+02 -0.40069803040E+01  0.97536240999E+01  0.54917835497E+02  0.47000000000E+01 0. -1.
        -13    1    4    4    0    0  0.47630764933E+01 -0.23154368963E+02 -0.22844716611E+01  0.23749326528E+02  0.00000000000E+00 0.  1.
         14    1    4    4    0    0 -0.49267799964E+02  0.13825147537E+02 -0.10899504449E+03  0.12040917963E+03  0.00000000000E+00 0. -1.
         -5    1    5    5    0  502  0.80496180761E+01 -0.39009804677E+02 -0.55677126655E+02  0.68619192976E+02  0.47000000000E+01 0.  1.
         11    1    6    6    0    0 -0.15459356833E+02 -0.19591613303E+02  0.39096428678E+01  0.25260806259E+02  0.00000000000E+00 0. -1.
        -12    1    6    6    0    0 -0.17762220804E+01  0.71937619710E+02  0.32781326409E+02  0.79074594249E+02  0.00000000000E+00 0.  1.
</event>
<event>
12    1  0.8297444E-002  0.1872958E+03  0.7818608E-02  0.1160936E+00
         21   -1    0    0  501  502  0.00000000000E+00  0.00000000000E+00  0.16201654423E+03  0.16201654423E+03  0.00000000000E+00 0. -1.
         21   -1    0    0  502  503 -0.00000000000E+00 -0.00000000000E+00 -0.29384388730E+03  0.29384388730E+03  0.00000000000E+00 0.  1.
         -6    2    1    2    0  503 -0.23754233697E+02  0.66761371162E+02 -0.18287932819E+03  0.26173155298E+03  0.17331247170E+03 0.  0.
        -24    2    3    3    0    0 -0.46219117192E+02 -0.22629919818E+01 -0.16007699215E+03  0.18550117697E+03  0.81515123220E+02 0.  0.
          6    2    1    2  501    0  0.23754233697E+02 -0.66761371162E+02  0.51051985114E+02  0.19412887855E+03  0.17337350434E+03 0.  0.
         24    2    5    5    0    0  0.50862838286E+02 -0.88705356869E+02  0.76513519518E+02  0.15069162858E+03  0.79987371492E+02 0.  0.
          5    1    5    5  501    0 -0.27108604589E+02  0.21943985707E+02 -0.25461534405E+02  0.43437249979E+02  0.47000000000E+01 0. -1.
        -13    1    6    6    0    0  0.62541236513E+02 -0.33296822498E+02  0.28208730446E+02  0.76261504879E+02  0.00000000000E+00 0.  1.
         14    1    6    6    0    0 -0.11678398227E+02 -0.55408534371E+02  0.48304789072E+02  0.74430123697E+02  0.00000000000E+00 0. -1.
         -5    1    3    3    0  503  0.22464883495E+02  0.69024363144E+02 -0.22802336037E+02  0.76230376010E+02  0.47000000000E+01 0.  1.
         13    1    4    4    0    0 -0.37874010712E+02 -0.23654870806E+02 -0.30908782137E+02  0.54307885371E+02  0.00000000000E+00 0. -1.
        -14    1    4    4    0    0 -0.83451064795E+01  0.21391878824E+02 -0.12916821001E+03  0.13119329160E+03  0.00000000000E+00 0.  1.
</event>
<event>
12    1  0.8297444E-002  0.2126607E+03  0.7818608E-02  0.1139478E+00
         21   -1    0    0  503  502  0.00000000000E+00  0.00000000000E+00  0.40834996650E+02  0.40834996650E+02  0.00000000000E+00 0. -1.
         21   -1    0    0  501  503 -0.00000000000E+00 -0.00000000000E+00 -0.11955330062E+04  0.11955330062E+04  0.00000000000E+00 0.  1.
          6    2    1    2  501    0 -0.54670578180E+02 -0.11405560166E+03 -0.40953899449E+03  0.46145733031E+03  0.17094773265E+03 0.  0.
         24    2    3    3    0    0 -0.24492009800E+01 -0.12908818708E+03 -0.24738053378E+03  0.29037107358E+03  0.80302386324E+02 0.  0.
         -6    2    1    2    0  502  0.54670578180E+02  0.11405560166E+03 -0.74515901506E+03  0.77491067254E+03  0.17095917730E+03 0.  0.
        -24    2    5    5    0    0  0.60780583237E+02  0.12657090438E+03 -0.74265246588E+03  0.75999967818E+03  0.79701647496E+02 0.  0.
          5    1    3    3  501    0 -0.52221377200E+02  0.15032585422E+02 -0.16215846072E+03  0.17108625673E+03  0.47000000000E+01 0. -1.
        -11    1    4    4    0    0 -0.54742693895E+01 -0.55650364237E+01 -0.89731701423E+02  0.90070613942E+02  0.00000000000E+00 0.  1.
         12    1    4    4    0    0  0.30250684095E+01 -0.12352315066E+03 -0.15764883235E+03  0.20030045964E+03  0.00000000000E+00 0. -1.
         -5    1    5    5    0  502 -0.61100050571E+01 -0.12515302723E+02 -0.25065491735E+01  0.14910994360E+02  0.47000000000E+01 0.  1.
         11    1    6    6    0    0  0.11820646829E+02 -0.57067365351E+00 -0.12378460083E+02  0.17125409014E+02  0.00000000000E+00 0. -1.
        -12    1    6    6    0    0  0.48959936408E+02  0.12714157804E+03 -0.73027400580E+03  0.74287426916E+03  0.00000000000E+00 0.  1.
</event>
<event>
12    1  0.8297444E-002  0.1886994E+03  0.7818608E-02  0.1160394E+00
         21   -1    0    0  503  502  0.00000000000E+00  0.00000000000E+00  0.68764864113E+02  0.68764864113E+02  0.00000000000E+00 0. -1.
         21   -1    0    0  501  503 -0.00000000000E+00 -0.00000000000E+00 -0.80680704517E+03  0.80680704517E+03  0.00000000000E+00 0. -1.
          6    2    1    2  501    0  0.57932954392E+02 -0.36607663159E+02 -0.63710984217E+03  0.66446701319E+03  0.17581556364E+03 0.  0.
         24    2    3    3    0    0  0.21338634158E+02  0.46743826840E+02 -0.36618885186E+03  0.37862284559E+03  0.81367446330E+02 0.  0.
         -6    2    1    2    0  502 -0.57932954392E+02  0.36607663159E+02 -0.10093233888E+03  0.21110489609E+03  0.17228346385E+03 0.  0.
        -24    2    5    5    0    0  0.18024884937E+02 -0.24611729916E+02 -0.38230542716E+02  0.95040204274E+02  0.81488847738E+02 0.  0.
          5    1    3    3  501    0  0.36594320234E+02 -0.83351489999E+02 -0.27092099032E+03  0.28584416760E+03  0.47000000000E+01 0. -1.
        -13    1    4    4    0    0 -0.23895471969E+02 -0.79685657460E+01 -0.90377615117E+02  0.93822198519E+02  0.00000000000E+00 0.  1.
         14    1    4    4    0    0  0.45234106127E+02  0.54712392586E+02 -0.27581123674E+03  0.28480064707E+03  0.00000000000E+00 0. -1.
         -5    1    5    5    0  502 -0.75957839329E+02  0.61219393075E+02 -0.62701796169E+02  0.11606469182E+03  0.47000000000E+01 0.  1.
         13    1    6    6    0    0 -0.20828015023E+02 -0.35675604031E+02 -0.29672192537E+01  0.41416896587E+02  0.00000000000E+00 0. -1.
        -14    1    6    6    0    0  0.38852899959E+02  0.11063874116E+02 -0.35263323462E+02  0.53623307687E+02  0.00000000000E+00 0.  1.
</event>
<event>
12    1  0.8297444E-002  0.1810325E+03  0.7818608E-02  0.1167508E+00
         21   -1    0    0  503  502  0.00000000000E+00  0.00000000000E+00  0.13262094061E+03  0.13262094061E+03  0.00000000000E+00 0.  1.
         21   -1    0    0  501  503 -0.00000000000E+00 -0.00000000000E+00 -0.24389083418E+03  0.24389083418E+03  0.00000000000E+00 0.  1.
          6    2    1    2  501    0  0.31799163232E+02  0.40837264388E+02 -0.45059283843E+02  0.18375131473E+03  0.17045626319E+03 0.  0.
         24    2    3    3    0    0 -0.43949082284E+01 -0.38265849884E+02  0.19315428242E+02  0.75430000795E+02  0.61911297565E+02 0.  0.
         -6    2    1    2    0  502 -0.31799163232E+02 -0.40837264388E+02 -0.66210609727E+02  0.19276046007E+03  0.17347588069E+03 0.  0.
        -24    2    5    5    0    0  0.47491115716E+02 -0.24510234303E+02 -0.60209014921E+02  0.11144853359E+03  0.77068103032E+02 0.  0.
          5    1    3    3  501    0  0.36194071460E+02  0.79103114272E+02 -0.64374712085E+02  0.10832131393E+03  0.47000000000E+01 0. -1.
        -13    1    4    4    0    0  0.10106339242E+02 -0.51539777532E+02  0.91997111824E+01  0.53320928788E+02  0.00000000000E+00 0.  1.
         14    1    4    4    0    0 -0.14501247471E+02  0.13273927648E+02  0.10115717059E+02  0.22109072008E+02  0.00000000000E+00 0. -1.
         -5    1    5    5    0  502 -0.79290278948E+02 -0.16327030086E+02 -0.60015948067E+01  0.81311926476E+02  0.47000000000E+01 0.  1.
         13    1    6    6    0    0  0.64739135906E+02 -0.11840209319E+02 -0.25314091815E+02  0.70513470479E+02  0.00000000000E+00 0. -1.
        -14    1    6    6    0    0 -0.17248020191E+02 -0.12670024984E+02 -0.34894923106E+02  0.40935063114E+02  0.00000000000E+00 0.  1.
</event>
<event>
12    1  0.8297444E-002  0.1907456E+03  0.7818608E-02  0.1158218E+00
         21   -1    0    0  501  502  0.00000000000E+00  0.00000000000E+00  0.38747483083E+03  0.38747483083E+03  0.00000000000E+00 0. -1.
         21   -1    0    0  502  503 -0.00000000000E+00 -0.00000000000E+00 -0.16614566646E+03  0.16614566646E+03  0.00000000000E+00 0. -1.
         -6    2    1    2    0  503 -0.75155561408E+02  0.30189709853E+02 -0.73350654245E+02  0.20259329646E+03  0.17059879338E+03 0.  0.
        -24    2    3    3    0    0 -0.42141648361E+01  0.21575351997E+02 -0.96959756951E+02  0.12718528204E+03  0.79319899771E+02 0.  0.
          6    2    1    2  501    0  0.75155561408E+02 -0.30189709853E+02  0.29467981862E+03  0.35102720083E+03  0.17269662194E+03 0.  0.
         24    2    5    5    0    0  0.54194518159E+02 -0.71967692639E+02  0.11564065120E+03  0.16592755564E+03  0.77735441908E+02 0.  0.
          5    1    5    5  501    0  0.20961043248E+02  0.41777982786E+02  0.17903916742E+03  0.18509964519E+03  0.47000000000E+01 0. -1.
        -11    1    6    6    0    0 -0.91482356558E+01  0.41500462287E+01 -0.38309761541E+01  0.10751254699E+02  0.00000000000E+00 0.  1.
         12    1    6    6    0    0  0.63342753815E+02 -0.76117738868E+02  0.11947162736E+03  0.15517630094E+03  0.00000000000E+00 0. -1.
         -5    1    3    3    0  503 -0.70941396572E+02  0.86143578557E+01  0.23609102705E+02  0.75408014424E+02  0.47000000000E+01 0.  1.
         13    1    4    4    0    0 -0.28029308003E+02  0.14505508763E+02 -0.50306822659E+01  0.31958717992E+02  0.00000000000E+00 0. -1.
        -14    1    4    4    0    0  0.23815143167E+02  0.70698432339E+01 -0.91929074685E+02  0.95226564045E+02  0.00000000000E+00 0.  1.
</event>
<event>
12    1  0.8297444E-002  0.2244041E+03  0.7818608E-02  0.1130966E+00
         21   -1    0    0  503  502  0.00000000000E+00  0.00000000000E+00  0.60846378181E+03  0.60846378181E+03  0.00000000000E+00 0. -1.
         21   -1    0    0  501  503 -0.00000000000E+00 -0.00000000000E+00 -0.82112328990E+02  0.82112328990E+02  0.00000000000E+00 0.  1.
          6    2    1    2  501    0  0.12752436691E+03 -0.63419620891E+02  0.26704462147E+03  0.34881229210E+03  0.17341474215E+03 0.  0.
         24    2    3    3    0    0  0.15196690808E+03 -0.83707424034E+02  0.23581969477E+03  0.30402257428E+03  0.81962938203E+02 0.  0.
         -6    2    1    2    0  502 -0.12752436691E+03  0.63419620891E+02  0.25930683135E+03  0.34176381870E+03  0.17110804341E+03 0.  0.
        -24    2    5    5    0    0 -0.24397474212E+02 -0.23331439993E+02  0.76973714268E+02  0.11498560514E+03  0.78467470082E+02 0.  0.
          5    1    3    3  501    0 -0.24442541169E+02  0.20287803143E+02  0.31224926702E+02  0.44789717823E+02  0.47000000000E+01 0. -1.
        -13    1    4    4    0    0  0.44200587987E+02 -0.29404986751E+02  0.19949850430E+02  0.56712800639E+02  0.00000000000E+00 0.  1.
         14    1    4    4    0    0  0.10776632009E+03 -0.54302437283E+02  0.21586984434E+03  0.24730977364E+03  0.00000000000E+00 0. -1.
         -5    1    5    5    0  502 -0.10312689270E+03  0.86751060884E+02  0.18233311708E+03  0.22677821356E+03  0.47000000000E+01 0.  1.
         13    1    6    6    0    0 -0.42317772349E+02 -0.41189326511E+02  0.61830746530E+02  0.85500851993E+02  0.00000000000E+00 0. -1.
        -14    1    6    6    0    0  0.17920298137E+02  0.17857886518E+02  0.15142967737E+02  0.29484753146E+02  0.00000000000E+00 0.  1.
</event>
<event>
12    1  0.8297444E-002  0.1910788E+03  0.7818608E-02  0.1157590E+00
         21   -1    0    0  503  502  0.00000000000E+00  0.00000000000E+00  0.40374354654E+02  0.40374354654E+02  0.00000000000E+00 0.  1.
         21   -1    0    0  501  503 -0.00000000000E+00 -0.00000000000E+00 -0.10545031980E+04  0.10545031980E+04  0.00000000000E+00 0.  1.
          6    2    1    2  501    0  0.73212345602E+02  0.40495331644E+02 -0.71558049509E+03  0.74065277821E+03  0.17178816460E+03 0.  0.
         24    2    3    3    0    0  0.87261647625E+02  0.54557548048E+02 -0.70560723490E+03  0.71792207791E+03  0.83303174107E+02 0.  0.
         -6    2    1    2    0  502 -0.73212345602E+02 -0.40495331644E+02 -0.29854834830E+03  0.35422477448E+03  0.17130135770E+03 0.  0.
        -24    2    5    5    0    0 -0.82324765559E+02 -0.31635818633E+00 -0.29006690091E+03  0.31189971033E+03  0.79781922717E+02 0.  0.
          5    1    3    3  501    0 -0.14049302023E+02 -0.14062216404E+02 -0.99732601886E+01  0.22730700304E+02  0.47000000000E+01 0. -1.
        -11    1    4    4    0    0  0.56420281992E+02  0.51443592033E+02 -0.25338580766E+03  0.26463948856E+03  0.00000000000E+00 0.  1.
         12    1    4    4    0    0  0.30841365633E+02  0.31139560145E+01 -0.45222142724E+03  0.45328258935E+03  0.00000000000E+00 0. -1.
         -5    1    5    5    0  502  0.91124199569E+01 -0.40178973458E+02 -0.84814473898E+01  0.42325064151E+02  0.47000000000E+01 0.  1.
         11    1    6    6    0    0 -0.25257601858E+02 -0.36492986950E+02 -0.83483905489E+02  0.94547591317E+02  0.00000000000E+00 0. -1.
        -12    1    6    6    0    0 -0.57067163701E+02  0.36176628763E+02 -0.20658299542E+03  0.21735211901E+03  0.00000000000E+00 0.  1.
</event>
<event>
12    1  0.8297444E-002  0.2118616E+03  0.7818608E-02  0.1140714E+00
         21   -1    0    0  503  502  0.00000000000E+00  0.00000000000E+00  0.11802374882E+03  0.11802374882E+03  0.00000000000E+00 0. -1.
         21   -1    0    0  501  503 -0.00000000000E+00 -0.00000000000E+00 -0.39729699517E+03  0.39729699517E+03  0.00000000000E+00 0. -1.
          6    2    1    2  501    0 -0.11460388360E+03  0.28064503425E+02 -0.20199363609E+03  0.29272302842E+03  0.17596498475E+03 0.  0.
         24    2    3    3    0    0 -0.14082335410E+03  0.48952129512E+02 -0.19562124373E+03  0.25827813124E+03  0.78818741645E+02 0.  0.
         -6    2    1    2    0  502  0.11460388360E+03 -0.28064503425E+02 -0.77279610259E+02  0.22259771557E+03  0.17220899607E+03 0.  0.
        -24    2    5    5    0    0  0.85276690813E+02  0.38858130390E+02 -0.92104866379E+01  0.12262662603E+03  0.78551817640E+02 0.  0.
          5    1    3    3  501    0  0.26219470507E+02 -0.20887626088E+02 -0.63723923580E+01  0.34444897178E+02  0.47000000000E+01 0. -1.
        -11    1    4    4    0    0 -0.37664416965E+02 -0.49225304186E+01 -0.10223270952E+03  0.10906129702E+03  0.00000000000E+00 0.  1.
         12    1    4    4    0    0 -0.10315893714E+03  0.53874659931E+02 -0.93388534209E+02  0.14921683422E+03  0.00000000000E+00 0. -1.
         -5    1    5    5    0  502  0.29327192782E+02 -0.66922633815E+02 -0.68069123621E+02  0.99971089540E+02  0.47000000000E+01 0.  1.
         11    1    6    6    0    0  0.28360942962E+02 -0.24066776382E+02  0.70341608876E+00  0.37202790290E+02  0.00000000000E+00 0. -1.
        -12    1    6    6    0    0  0.56915747851E+02  0.62924906772E+02 -0.99139027267E+01  0.85423835743E+02  0.00000000000E+00 0.  1.
</event>
<event>
12    1  0.8297444E-002  0.2161869E+03  0.7818608E-02  0.1136769E+00
         21   -1    0    0  501  502  0.00000000000E+00  0.00000000000E+00  0.33169571224E+03  0.33169571224E+03  0.00000000000E+00 0.  1.
         21   -1    0    0  502  503 -0.00000000000E+00 -0.00000000000E+00 -0.32755290672E+03  0.32755290672E+03  0.00000000000E+00 0.  1.
         -6    2    1    2    0  503  0.10172478907E+03 -0.82346108855E+02 -0.24677849473E+03  0.32804135255E+03  0.17199618941E+03 0.  0.
        -24    2    3    3    0    0  0.13665316691E+03 -0.45469628580E+02 -0.17716142238E+03  0.24173669950E+03  0.79428503436E+02 0.  0.
          6    2    1    2  501    0 -0.10172478907E+03  0.82346108855E+02  0.25092130024E+03  0.33120726641E+03  0.17206957910E+03 0.  0.
         24    2    5    5    0    0 -0.24811867671E+02  0.10061261051E+03  0.19430323569E+03  0.23385759875E+03  0.78721680121E+02 0.  0.
          5    1    5    5  501    0 -0.76912921394E+02 -0.18266501651E+02  0.56618064549E+02  0.97349667658E+02  0.47000000000E+01 0. -1.
        -13    1    6    6    0    0 -0.39519495850E+02  0.67920399457E+02  0.17780435615E+03  0.19439485662E+03  0.00000000000E+00 0.  1.
         14    1    6    6    0    0  0.14707628179E+02  0.32692211049E+02  0.16498879541E+02  0.39462742125E+02  0.00000000000E+00 0. -1.
         -5    1    3    3    0  503 -0.34928377842E+02 -0.36876480275E+02 -0.69617072347E+02  0.86304653051E+02  0.47000000000E+01 0.  1.
         11    1    4    4    0    0  0.12049560385E+03 -0.11095844086E+02 -0.15852109591E+03  0.19942729540E+03  0.00000000000E+00 0. -1.
        -12    1    4    4    0    0  0.16157563057E+02 -0.34373784494E+02 -0.18640326467E+02  0.42309404098E+02  0.00000000000E+00 0.  1.
</event>
<event>
12    1  0.8297444E-002  0.5633486E+03  0.7818608E-02  0.9984885E-01
         21   -1    0    0  501  502  0.00000000000E+00  0.00000000000E+00  0.18141454127E+04  0.18141454127E+04  0.00000000000E+00 0.  1.
         21   -1    0    0  502  503 -0.00000000000E+00 -0.00000000000E+00 -0.19843033888E+03  0.19843033888E+03  0.00000000000E+00 0. -1.
         -6    2    1    2    0  503  0.45858254739E+03  0.27825869492E+03  0.45964394166E+03  0.72655004198E+03  0.16993103402E+03 0.  0.
        -24    2    3    3    0    0  0.33706147290E+03  0.17406239552E+03  0.39606015858E+03  0.55424441867E+03  0.80094146855E+02 0.  0.
          6    2    1    2  501    0 -0.45858254739E+03 -0.27825869492E+03  0.11560711321E+04  0.12860257096E+04  0.17215054188E+03 0.  0.
         24    2    5    5    0    0 -0.34439230741E+03 -0.13210579674E+03  0.79661070279E+03  0.88150874971E+03  0.80069101950E+02 0.  0.
          5    1    5    5  501    0 -0.11419023998E+03 -0.14615289818E+03  0.35946042933E+03  0.40451695985E+03  0.47000000000E+01 0. -1.
        -11    1    6    6    0    0 -0.17480790755E+02 -0.21168356048E+02  0.10493883100E+03  0.10847043650E+03  0.00000000000E+00 0.  1.
         12    1    6    6    0    0 -0.32691151665E+03 -0.11093744069E+03  0.69167187179E+03  0.77303831321E+03  0.00000000000E+00 0. -1.
         -5    1    3    3    0  503  0.12152107449E+03  0.10419629940E+03  0.63583783079E+02  0.17230562331E+03  0.47000000000E+01 0.  1.
         13    1    4    4    0    0  0.21321374180E+03  0.84375604953E+02  0.19088559324E+03  0.29835658550E+03  0.00000000000E+00 0. -1.
        -14    1    4    4    0    0  0.12384773110E+03  0.89686790564E+02  0.20517456534E+03  0.25588783317E+03  0.00000000000E+00 0.  1.
</event>
<event>
12    1  0.8297444E-002  0.2132294E+03  0.7818608E-02  0.1141025E+00
         21   -1    0    0  503  502  0.00000000000E+00  0.00000000000E+00  0.15952439211E+03  0.15952439211E+03  0.00000000000E+00 0.  1.
         21   -1    0    0  501  503 -0.00000000000E+00 -0.00000000000E+00 -0.28872497629E+03  0.28872497629E+03  0.00000000000E+00 0.  1.
          6    2    1    2  501    0  0.70208779226E+02 -0.83147202737E+02 -0.11738008804E+03  0.23469259117E+03  0.17163856582E+03 0.  0.
         24    2    3    3    0    0  0.73608016163E+02 -0.86847347835E+02 -0.14812790452E+03  0.20318443185E+03  0.79883886838E+02 0.  0.
         -6    2    1    2    0  502 -0.70208779226E+02  0.83147202737E+02 -0.11820496132E+02  0.21355677723E+03  0.18336859864E+03 0.  0.
        -24    2    5    5    0    0 -0.34619213112E+02  0.11884440499E+03  0.26886010366E+02  0.14982930191E+03  0.80021744824E+02 0.  0.
          5    1    3    3  501    0 -0.33992369371E+01  0.37001450983E+01  0.30747816482E+02  0.31508159323E+02  0.47000000000E+01 0. -1.
        -13    1    4    4    0    0  0.61506413572E+02 -0.10060698714E+03 -0.11178308336E+03  0.16248157587E+03  0.00000000000E+00 0.  1.
         14    1    4    4    0    0  0.12101602591E+02  0.13759639305E+02 -0.36344821164E+02  0.40702855975E+02  0.00000000000E+00 0. -1.
         -5    1    5    5    0  502 -0.35589566114E+02 -0.35697202252E+02 -0.38706506498E+02  0.63727475316E+02  0.47000000000E+01 0.  1.
         13    1    6    6    0    0 -0.19548418080E+02  0.20255696824E+02 -0.24783723061E+02  0.37505557349E+02  0.00000000000E+00 0. -1.
        -14    1    6    6    0    0 -0.15070795032E+02  0.98588708165E+02  0.51669733427E+02  0.11232374456E+03  0.00000000000E+00 0.  1.
</event>
<event>
12    1  0.8297444E-002  0.2098270E+03  0.7818608E-02  0.1141850E+00
         21   -1    0    0  501  502  0.00000000000E+00  0.00000000000E+00  0.71064750470E+03  0.71064750470E+03  0.00000000000E+00 0. -1.
         21   -1    0    0  502  503 -0.00000000000E+00 -0.00000000000E+00 -0.10863118370E+03  0.10863118370E+03  0.00000000000E+00 0. -1.
         -6    2    1    2    0  503  0.18274982804E+02 -0.11763705766E+03  0.31556216535E+02  0.21145295629E+03  0.17188398875E+03 0.  0.
        -24    2    3    3    0    0  0.52041866065E+01 -0.12262836729E+02 -0.35744137498E+02  0.85651526235E+02  0.76688198948E+02 0.  0.
          6    2    1    2  501    0 -0.18274982804E+02  0.11763705766E+03  0.57046010446E+03  0.60782573212E+03  0.17278581397E+03 0.  0.
         24    2    5    5    0    0  0.56100218564E+01  0.63832735470E+02  0.14149415166E+03  0.17481386485E+03  0.80207243601E+02 0.  0.
          5    1    5    5  501    0 -0.23885004660E+02  0.53804322192E+02  0.42896595280E+03  0.43301186727E+03  0.47000000000E+01 0. -1.
        -13    1    6    6    0    0  0.69367870532E+01  0.57682547172E+02  0.15191246664E+03  0.16264314552E+03  0.00000000000E+00 0.  1.
         14    1    6    6    0    0 -0.13267651968E+01  0.61501882979E+01 -0.10418314980E+02  0.12170719330E+02  0.00000000000E+00 0. -1.
         -5    1    3    3    0  503  0.13070796198E+02 -0.10537422093E+03  0.67300354033E+02  0.12580143005E+03  0.47000000000E+01 0.  1.
         13    1    4    4    0    0  0.13266702927E+02 -0.20268096896E+02 -0.56786681190E+02  0.61737576231E+02  0.00000000000E+00 0. -1.
        -14    1    4    4    0    0 -0.80625163206E+01  0.80052601669E+01  0.21042543692E+02  0.23913950004E+02  0.00000000000E+00 0.  1.
</event>
<event>
12    1  0.8297444E-002  0.2018252E+03  0.7818608E-02  0.1148459E+00
         21   -1    0    0  501  502  0.00000000000E+00  0.00000000000E+00  0.18249551642E+03  0.18249551642E+03  0.00000000000E+00 0.  1.
         21   -1    0    0  502  503 -0.00000000000E+00 -0.00000000000E+00 -0.23370003650E+03  0.23370003650E+03  0.00000000000E+00 0. -1.
         -6    2    1    2    0  503 -0.77995507581E+02 -0.68510194380E+02 -0.72337918843E+02  0.21326690700E+03  0.17167717723E+03 0.  0.
        -24    2    3    3    0    0  0.23374558963E+02 -0.42562878004E+02 -0.18003023366E+02  0.95268921911E+02  0.79963054226E+02 0.  0.
          6    2    1    2  501    0  0.77995507581E+02  0.68510194380E+02  0.21133398761E+02  0.20292864592E+03  0.17307937154E+03 0.  0.
         24    2    5    5    0    0  0.10530643417E+03  0.38246292695E+02 -0.21982817461E+02  0.14340647729E+03  0.86775281532E+02 0.  0.
          5    1    5    5  501    0 -0.27310926585E+02  0.30263901685E+02  0.43116216222E+02  0.59522168621E+02  0.47000000000E+01 0. -1.
        -13    1    6    6    0    0  0.11288119055E+03  0.40050476293E+02  0.32779169371E+00  0.11977608810E+03  0.00000000000E+00 0.  1.
         14    1    6    6    0    0 -0.75747563887E+01 -0.18041835982E+01 -0.22310609155E+02  0.23630389198E+02  0.00000000000E+00 0. -1.
         -5    1    3    3    0  503 -0.10137006654E+03 -0.25947316376E+02 -0.54334895477E+02  0.11799798509E+03  0.47000000000E+01 0.  1.
         13    1    4    4    0    0  0.23530920179E+01 -0.43990997568E+02 -0.43690793297E+02  0.62045389256E+02  0.00000000000E+00 0. -1.
        -14    1    4    4    0    0  0.21021466945E+02  0.14281195638E+01  0.25687769931E+02  0.33223532654E+02  0.00000000000E+00 0.  1.
</event>
<event>
12    1  0.8297444E-002  0.2095074E+03  0.7818608E-02  0.1142087E+00
         21   -1    0    0  503  502  0.00000000000E+00  0.00000000000E+00  0.62007536510E+03  0.62007536510E+03  0.00000000000E+00 0.  1.
         21   -1    0    0  501  503 -0.00000000000E+00 -0.00000000000E+00 -0.93574198439E+02  0.93574198439E+02  0.00000000000E+00 0. -1.
          6    2    1    2  501    0  0.66220227349E+02  0.99738873101E+02  0.85998562676E+02  0.22586281978E+03  0.17112948097E+03 0.  0.
         24    2    3    3    0    0  0.94785226719E+02  0.60367861837E+02  0.10673200510E+03  0.17277796929E+03  0.76367452565E+02 0.  0.
         -6    2    1    2    0  502 -0.66220227349E+02 -0.99738873101E+02  0.44050260399E+03  0.48778674376E+03  0.17193138734E+03 0.  0.
        -24    2    5    5    0    0 -0.96588220166E+02 -0.58157337402E+02  0.25161875682E+03  0.29195406820E+03  0.95987598073E+02 0.  0.
          5    1    3    3  501    0 -0.28564999370E+02  0.39371011264E+02 -0.20733442425E+02  0.53084850492E+02  0.47000000000E+01 0. -1.
        -11    1    4    4    0    0  0.61926750951E+01  0.11184671896E+02  0.59721776452E+02  0.61074845009E+02  0.00000000000E+00 0.  1.
         12    1    4    4    0    0  0.88592551624E+02  0.49183189941E+02  0.47010228650E+02  0.11170312428E+03  0.00000000000E+00 0. -1.
         -5    1    5    5    0  502  0.30367992817E+02 -0.41581535698E+02  0.18888384717E+03  0.19583267556E+03  0.47000000000E+01 0.  1.
         13    1    6    6    0    0 -0.58959269768E+02 -0.17581795393E+01  0.44122807088E+02  0.73662125901E+02  0.00000000000E+00 0. -1.
        -14    1    6    6    0    0 -0.37628950398E+02 -0.56399157863E+02  0.20749594973E+03  0.21829194230E+03  0.00000000000E+00 0.  1.
</event>
<event>
12    1  0.8297444E-002  0.1818041E+03  0.7818608E-02  0.1166723E+00
         21   -1    0    0  501  502  0.00000000000E+00  0.00000000000E+00  0.11507092916E+04  0.11507092916E+04  0.00000000000E+00 0. -1.
         21   -1    0    0  502  503 -0.00000000000E+00 -0.00000000000E+00 -0.10419582518E+03  0.10419582518E+03  0.00000000000E+00 0. -1.
         -6    2    1    2    0  503  0.30293317978E+02 -0.50344740261E+02 -0.11189729620E+02  0.18214814704E+03  0.17204784054E+03 0.  0.
        -24    2    3    3    0    0 -0.30844057081E+02 -0.38334203794E+02 -0.55151804154E+02  0.10574928832E+03  0.75632819870E+02 0.  0.
          6    2    1    2  501    0 -0.30293317978E+02  0.50344740261E+02  0.10577031960E+04  0.10727569697E+04  0.16917206401E+03 0.  0.
         24    2    5    5    0    0 -0.81750805407E+02  0.52567405734E+02  0.81742200462E+03  0.82697260449E+03  0.79110230752E+02 0.  0.
          5    1    5    5  501    0  0.51457487429E+02 -0.22226654724E+01  0.24028119139E+03  0.24578436523E+03  0.47000000000E+01 0. -1.
        -11    1    6    6    0    0 -0.21770237135E+02 -0.74642142644E+01  0.52057136157E+02  0.56917511755E+02  0.00000000000E+00 0.  1.
         12    1    6    6    0    0 -0.59980568272E+02  0.60031619998E+02  0.76536486846E+03  0.77005509273E+03  0.00000000000E+00 0. -1.
         -5    1    3    3    0  503  0.61137375059E+02 -0.12010536467E+02  0.43962074534E+02  0.76398858713E+02  0.47000000000E+01 0.  1.
         11    1    4    4    0    0  0.61970391056E+01  0.92736227172E+01 -0.42731920030E+02  0.44163563731E+02  0.00000000000E+00 0. -1.
        -12    1    4    4    0    0 -0.37041096186E+02 -0.47607826511E+02 -0.12419884124E+02  0.61585724592E+02  0.00000000000E+00 0.  1.
</event>
<event>
12    1  0.8297444E-002  0.2677724E+03  0.7818608E-02  0.1102623E+00
         21   -1    0    0  503  502  0.00000000000E+00  0.00000000000E+00  0.52324027029E+03  0.52324027029E+03  0.00000000000E+00 0. -1.
         21   -1    0    0  501  503 -0.00000000000E+00 -0.00000000000E+00 -0.13749830958E+03  0.13749830958E+03  0.00000000000E+00 0. -1.
          6    2    1    2  501    0 -0.12389796820E+03  0.16360397622E+03  0.16947486840E+03  0.31653874518E+03  0.17134199316E+03 0.  0.
         24    2    3    3    0    0 -0.91077537135E+02  0.58986146863E+02  0.15547013752E+03  0.20590288570E+03  0.80315324749E+02 0.  0.
         -6    2    1    2    0  502  0.12389796820E+03 -0.16360397622E+03  0.21626709231E+03  0.34419983470E+03  0.17200320762E+03 0.  0.
        -24    2    5    5    0    0  0.72235367085E+02 -0.16708236228E+03  0.11202690236E+03  0.22771279368E+03  0.78540597850E+02 0.  0.
          5    1    3    3  501    0 -0.32820431066E+02  0.10461782935E+03  0.14004730884E+02  0.11063585947E+03  0.47000000000E+01 0. -1.
        -13    1    4    4    0    0 -0.44095888510E+02 -0.15584032423E+02  0.57612785281E+02  0.74206081138E+02  0.00000000000E+00 0.  1.
         14    1    4    4    0    0 -0.46981648625E+02  0.74570179286E+02  0.97857352234E+02  0.13169680456E+03  0.00000000000E+00 0. -1.
         -5    1    5    5    0  502  0.51662601116E+02  0.34783860644E+01  0.10424018996E+03  0.11648704102E+03  0.47000000000E+01 0.  1.
         13    1    6    6    0    0 -0.39056289603E+01 -0.72722603970E+02  0.20083800675E+02  0.75545947048E+02  0.00000000000E+00 0. -1.
        -14    1    6    6    0    0  0.76140996045E+02 -0.94359758311E+02  0.91943101680E+02  0.15216684663E+03  0.00000000000E+00 0.  1.
</event>
<event>
12    1  0.8297444E-002  0.3411012E+03  0.7818608E-02  0.1066392E+00
         21   -1    0    0  501  502  0.00000000000E+00  0.00000000000E+00  0.15443020921E+03  0.15443020921E+03  0.00000000000E+00 0.  1.
         21   -1    0    0  502  503 -0.00000000000E+00 -0.00000000000E+00 -0.94686750796E+03  0.94686750796E+03  0.00000000000E+00 0.  1.
         -6    2    1    2    0  503  0.13099766822E+03  0.26381384190E+03 -0.64569528909E+03  0.72997138391E+03  0.17081476139E+03 0.  0.
        -24    2    3    3    0    0  0.54917334380E+02  0.20203051433E+03 -0.54629126585E+03  0.59029802711E+03  0.78647131728E+02 0.  0.
          6    2    1    2  501    0 -0.13099766822E+03 -0.26381384190E+03 -0.14674200966E+03  0.37132633325E+03  0.17202295228E+03 0.  0.
         24    2    5    5    0    0 -0.16149361376E+03 -0.23901201078E+03 -0.14225020322E+03  0.33148414648E+03  0.80247681999E+02 0.  0.
          5    1    5    5  501    0  0.30495945548E+02 -0.24801831128E+02 -0.44918064343E+01  0.39842186777E+02  0.47000000000E+01 0. -1.
        -11    1    6    6    0    0 -0.10560677083E+03 -0.20711512378E+03 -0.12867458313E+03  0.26571904878E+03  0.00000000000E+00 0.  1.
         12    1    6    6    0    0 -0.55886842939E+02 -0.31896886994E+02 -0.13575620098E+02  0.65765097694E+02  0.00000000000E+00 0. -1.
         -5    1    3    3    0  503  0.76080333837E+02  0.61783327572E+02 -0.99404023245E+02  0.13967335680E+03  0.47000000000E+01 0.  1.
         11    1    4    4    0    0  0.48348014150E+02  0.86662301250E+02 -0.33601276334E+03  0.35036047445E+03  0.00000000000E+00 0. -1.
        -12    1    4    4    0    0  0.65693202303E+01  0.11536821308E+03 -0.21027850251E+03  0.23993755266E+03  0.00000000000E+00 0.  1.
</event>
<event>
12    1  0.8297444E-002  0.2317173E+03  0.7818608E-02  0.1125628E+00
         21   -1    0    0  503  502  0.00000000000E+00  0.00000000000E+00  0.66614953327E+02  0.66614953327E+02  0.00000000000E+00 0. -1.
         21   -1    0    0  501  503 -0.00000000000E+00 -0.00000000000E+00 -0.80631072356E+03  0.80631072356E+03  0.00000000000E+00 0. -1.
          6    2    1    2  501    0 -0.11243227160E+03 -0.10512176574E+03 -0.40004764913E+03  0.46176422779E+03  0.17174539050E+03 0.  0.
         24    2    3    3    0    0 -0.27745728181E+02  0.57742742955E+01 -0.93419526243E+02  0.12484786119E+03  0.77824243557E+02 0.  0.
         -6    2    1    2    0  502  0.11243227160E+03  0.10512176574E+03 -0.33964812110E+03  0.41116144910E+03  0.17320880384E+03 0.  0.
        -24    2    5    5    0    0  0.74938552647E+02  0.47971390953E+02 -0.83396080256E+02  0.14590847035E+03  0.80108267328E+02 0.  0.
          5    1    3    3  501    0 -0.84686543418E+02 -0.11089604004E+03 -0.30662812289E+03  0.33691636660E+03  0.47000000000E+01 0. -1.
        -13    1    4    4    0    0  0.20375146268E+02 -0.18729031134E+02 -0.41890290802E+02  0.50206769027E+02  0.00000000000E+00 0.  1.
         14    1    4    4    0    0 -0.48120874449E+02  0.24503305430E+02 -0.51529235441E+02  0.74641092167E+02  0.00000000000E+00 0. -1.
         -5    1    5    5    0  502  0.37493718952E+02  0.57150374790E+02 -0.25625204084E+03  0.26525297875E+03  0.47000000000E+01 0.  1.
         11    1    6    6    0    0  0.71756264280E+02  0.30565406433E+02 -0.96362610605E+02  0.12397160262E+03  0.00000000000E+00 0. -1.
        -12    1    6    6    0    0  0.31822883671E+01  0.17405984520E+02  0.12966530349E+02  0.21936867727E+02  0.00000000000E+00 0.  1.
</event>
<event>
12    1  0.8297444E-002  0.1987803E+03  0.7818608E-02  0.1150933E+00
         21   -1    0    0  501  502  0.00000000000E+00  0.00000000000E+00  0.93457108792E+02  0.93457108792E+02  0.00000000000E+00 0.  1.
         21   -1    0    0  502  503 -0.00000000000E+00 -0.00000000000E+00 -0.69171146222E+03  0.69171146222E+03  0.00000000000E+00 0. -1.
         -6    2    1    2    0  503 -0.93643720227E+02  0.30405176701E+02 -0.54428878139E+03  0.57919307780E+03  0.17181595594E+03 0.  0.
        -24    2    3    3    0    0 -0.96114261182E+02 -0.22418862950E+02 -0.47565904619E+03  0.49242549577E+03  0.80565402274E+02 0.  0.
          6    2    1    2  501    0  0.93643720227E+02 -0.30405176701E+02 -0.53965572040E+02  0.20597549322E+03  0.17268468297E+03 0.  0.
         24    2    5    5    0    0  0.10507312444E+03 -0.21385300275E+02  0.13761972162E+02  0.13654135395E+03  0.83405377015E+02 0.  0.
          5    1    5    5  501    0 -0.11429404210E+02 -0.90198764259E+01 -0.67727544202E+02  0.69434139261E+02  0.47000000000E+01 0. -1.
        -11    1    6    6    0    0  0.27755385495E+02 -0.35702320135E+02 -0.21846455871E+02  0.50222352803E+02  0.00000000000E+00 0.  1.
         12    1    6    6    0    0  0.77317738942E+02  0.14317019860E+02  0.35608428032E+02  0.86319001151E+02  0.00000000000E+00 0. -1.
         -5    1    3    3    0  503  0.24705409557E+01  0.52824039650E+02 -0.68629735200E+02  0.86767582030E+02  0.47000000000E+01 0.  1.
         11    1    4    4    0    0  0.11013704748E+02 -0.16405201713E+02 -0.88043414524E+02  0.90233448214E+02  0.00000000000E+00 0. -1.
        -12    1    4    4    0    0 -0.10712796593E+03 -0.60136612364E+01 -0.38761563166E+03  0.40219204755E+03  0.00000000000E+00 0.  1.
</event>
<event>
12    1  0.8297444E-002  0.2089385E+03  0.7818608E-02  0.1142477E+00
         21   -1    0    0  503  502  0.00000000000E+00  0.00000000000E+00  0.16777679076E+03  0.16777679076E+03  0.00000000000E+00 0. -1.
         21   -1    0    0  501  503 -0.00000000000E+00 -0.00000000000E+00 -0.26260247217E+03  0.26260247217E+03  0.00000000000E+00 0.  1.
          6    2    1    2  501    0  0.69581288527E+02  0.96807850901E+02 -0.25134455468E+02  0.21044485149E+03  0.17158665145E+03 0.  0.
         24    2    3    3    0    0  0.87053755250E+02  0.12423101200E+03 -0.43917085180E+02  0.17260051193E+03  0.69645715606E+02 0.  0.
         -6    2    1    2    0  502 -0.69581288527E+02 -0.96807850901E+02 -0.69691225943E+02  0.21993441144E+03  0.17117523960E+03 0.  0.
        -24    2    5    5    0    0 -0.43148981858E+02 -0.13522286327E+03 -0.34090769528E+02  0.16107982361E+03  0.68098984002E+02 0.  0.
          5    1    3    3  501    0 -0.17472466723E+02 -0.27423161094E+02  0.18782629713E+02  0.37844339560E+02  0.47000000000E+01 0. -1.
        -13    1    4    4    0    0 -0.11279596112E+02  0.49181942820E+01 -0.34703772367E+01  0.12785204011E+02  0.00000000000E+00 0.  1.
         14    1    4    4    0    0  0.98333351362E+02  0.11931281771E+03 -0.40446707944E+02  0.15981530792E+03  0.00000000000E+00 0. -1.
         -5    1    5    5    0  502 -0.26432306669E+02  0.38415012369E+02 -0.35600456415E+02  0.58854587826E+02  0.47000000000E+01 0.  1.
         13    1    6    6    0    0 -0.39866799753E+02 -0.31633491823E+02  0.30520541659E+01  0.50983865704E+02  0.00000000000E+00 0. -1.
        -14    1    6    6    0    0 -0.32821821053E+01 -0.10358937145E+03 -0.37142823694E+02  0.11009595791E+03  0.00000000000E+00 0.  1.
</event>
<event>
12    1  0.8297444E-002  0.2039809E+03  0.7818608E-02  0.1146498E+00
         21   -1    0    0  501  502  0.00000000000E+00  0.00000000000E+00  0.16130852193E+04  0.16130852193E+04  0.00000000000E+00 0. -1.
         21   -1    0    0  502  503 -0.00000000000E+00 -0.00000000000E+00 -0.37579823277E+02  0.37579823277E+02  0.00000000000E+00 0.  1.
         -6    2    1    2    0  503 -0.23851753759E+01  0.10886751030E+03  0.32513654947E+03  0.38382543684E+03  0.17248294496E+03 0.  0.
        -24    2    3    3    0    0  0.55280244461E+02  0.24320322928E+02  0.14434036037E+03  0.17602052946E+03  0.80633142223E+02 0.  0.
          6    2    1    2  501    0  0.23851753759E+01 -0.10886751030E+03  0.12503688466E+04  0.12668396058E+04  0.17205380083E+03 0.  0.
         24    2    5    5    0    0  0.94138466545E+01 -0.33003307824E+02  0.26106639912E+03  0.27459659018E+03  0.77908816901E+02 0.  0.
          5    1    5    5  501    0 -0.70286712786E+01 -0.75864202471E+02  0.98930244746E+03  0.99224301559E+03  0.47000000000E+01 0. -1.
        -13    1    6    6    0    0 -0.29920487096E+02 -0.65921944926E+01  0.53131371351E+02  0.61332170987E+02  0.00000000000E+00 0.  1.
         14    1    6    6    0    0  0.39334333751E+02 -0.26411113332E+02  0.20793502777E+03  0.21326441919E+03  0.00000000000E+00 0. -1.
         -5    1    3    3    0  503 -0.57665419837E+02  0.84547187368E+02  0.18079618910E+03  0.20780490738E+03  0.47000000000E+01 0.  1.
         11    1    4    4    0    0 -0.57679789466E+01 -0.21701845663E+02  0.48310276835E+02  0.53274032457E+02  0.00000000000E+00 0. -1.
        -12    1    4    4    0    0  0.61048223407E+02  0.46022168590E+02  0.96030083533E+02  0.12274649700E+03  0.00000000000E+00 0.  1.
</event>
<event>
12    1  0.8297444E-002  0.2147620E+03  0.7818608E-02  0.1140688E+00
         21   -1    0    0  503  502  0.00000000000E+00  0.00000000000E+00  0.72931335341E+03  0.72931335341E+03  0.00000000000E+00 0.  1.
         21   -1    0    0  501  503 -0.00000000000E+00 -0.00000000000E+00 -0.26477810766E+03  0.26477810766E+03  0.00000000000E+00 0. -1.
          6    2    1    2  501    0 -0.38723334337E+02  0.95147253272E+02 -0.20395190593E+03  0.29617406299E+03  0.18860063423E+03 0.  0.
         24    2    3    3    0    0 -0.27211102206E+02  0.14376404328E+03 -0.15675916663E+03  0.22728742857E+03  0.75349815122E+02 0.  0.
         -6    2    1    2    0  502  0.38723334337E+02 -0.95147253272E+02  0.66848715168E+03  0.69791739808E+03  0.17222405800E+03 0.  0.
        -24    2    5    5    0    0 -0.28855433845E+02 -0.10070430392E+03  0.44684280759E+03  0.46608539859E+03  0.81197975306E+02 0.  0.
          5    1    3    3  501    0 -0.11512232130E+02 -0.48616790012E+02 -0.47192739298E+02  0.68886634423E+02  0.47000000000E+01 0. -1.
        -11    1    4    4    0    0 -0.21911087530E+02  0.49520843936E+02 -0.13639170000E+02  0.55842964634E+02  0.00000000000E+00 0.  1.
         12    1    4    4    0    0 -0.53000146764E+01  0.94243199348E+02 -0.14311999663E+03  0.17144446394E+03  0.00000000000E+00 0. -1.
         -5    1    5    5    0  502  0.67578768181E+02  0.55570506441E+01  0.22164434409E+03  0.23183199949E+03  0.47000000000E+01 0.  1.
         13    1    6    6    0    0  0.10855407619E+02 -0.51604043760E+02  0.95310871383E+02  0.10892648627E+03  0.00000000000E+00 0. -1.
        -14    1    6    6    0    0 -0.39710841463E+02 -0.49100260156E+02  0.35153193621E+03  0.35715891232E+03  0.00000000000E+00 0.  1.
</event>
<event>
12    1  0.8297444E-002  0.1976394E+03  0.7818608E-02  0.1152518E+00
         21   -1    0    0  503  502  0.00000000000E+00  0.00000000000E+00  0.85016824322E+03  0.85016824322E+03  0.00000000000E+00 0.  1.
         21   -1    0    0  501  503 -0.00000000000E+00 -0.00000000000E+00 -0.56157408653E+02  0.56157408653E+02  0.00000000000E+00 0.  1.
          6    2    1    2  501    0 -0.92770133973E+02  0.65804054349E+01  0.19319753499E+03  0.27384011866E+03  0.17033356560E+03 0.  0.
         24    2    3    3    0    0 -0.10995160657E+03 -0.24608900413E+02  0.19400683914E+03  0.23791351608E+03  0.79178492864E+02 0.  0.
         -6    2    1    2    0  502  0.92770133973E+02 -0.65804054349E+01  0.60081329958E+03  0.63248553322E+03  0.17438959052E+03 0.  0.
        -24    2    5    5    0    0  0.62879196675E+02 -0.31151863512E+02  0.57623958146E+03  0.58640753080E+03  0.83051218888E+02 0.  0.
          5    1    3    3  501    0  0.17181472596E+02  0.31189305848E+02 -0.80930415368E+00  0.35926602581E+02  0.47000000000E+01 0. -1.
        -13    1    4    4    0    0 -0.92104969212E+02  0.14662247523E+02  0.11673414960E+03  0.14941609196E+03  0.00000000000E+00 0.  1.
         14    1    4    4    0    0 -0.17846637357E+02 -0.39271147936E+02  0.77272689544E+02  0.88497424112E+02  0.00000000000E+00 0. -1.
         -5    1    5    5    0  502  0.29890937298E+02  0.24571458077E+02  0.24573718119E+02  0.46078002417E+02  0.47000000000E+01 0.  1.
         11    1    6    6    0    0  0.53711235685E+02 -0.48334287667E+02  0.26851437181E+03  0.27806666120E+03  0.00000000000E+00 0. -1.
        -12    1    6    6    0    0  0.91679609905E+01  0.17182424155E+02  0.30772520966E+03  0.30834086960E+03  0.00000000000E+00 0.  1.
</event>
<event>
12    1  0.8297444E-002  0.2677684E+03  0.7818608E-02  0.1102961E+00
         21   -1    0    0  503  502  0.00000000000E+00  0.00000000000E+00  0.58184999264E+03  0.58184999264E+03  0.00000000000E+00 0. -1.
         21   -1    0    0  501  503 -0.00000000000E+00 -0.00000000000E+00 -0.22030588197E+03  0.22030588197E+03  0.00000000000E+00 0.  1.
          6    2    1    2  501    0 -0.13149350286E+03  0.15300083382E+03 -0.86669803392E+02  0.28144545915E+03  0.17606843901E+03 0.  0.
         24    2    3    3    0    0 -0.73015864344E+01  0.10407187971E+03 -0.62092709602E+02  0.14563751316E+03  0.80439488705E+02 0.  0.
         -6    2    1    2    0  502  0.13149350286E+03 -0.15300083382E+03  0.44821391406E+03  0.52071041546E+03  0.17188318000E+03 0.  0.
        -24    2    5    5    0    0  0.78473668652E+01 -0.29191159664E+02  0.19402304326E+03  0.21208071637E+03  0.80122306332E+02 0.  0.
          5    1    3    3  501    0 -0.12419191642E+03  0.48928954109E+02 -0.24577093790E+02  0.13580794599E+03  0.47000000000E+01 0. -1.
        -11    1    4    4    0    0  0.14181077189E+02  0.37466126692E+02 -0.64140717181E+02  0.75623046752E+02  0.00000000000E+00 0.  1.
         12    1    4    4    0    0 -0.21482663624E+02  0.66605753019E+02  0.20480075787E+01  0.70014466410E+02  0.00000000000E+00 0. -1.
         -5    1    5    5    0  502  0.12364613599E+03 -0.12380967416E+03  0.25419087081E+03  0.30862969909E+03  0.47000000000E+01 0.  1.
         11    1    6    6    0    0  0.14654193724E+02  0.15109591591E+02  0.11198353517E+02  0.23842153285E+02  0.00000000000E+00 0. -1.
        -12    1    6    6    0    0 -0.68068268593E+01 -0.44300751255E+02  0.18282468974E+03  0.18823856309E+03  0.00000000000E+00 0.  1.
</event>
<event>
12    1  0.8297444E-002  0.2691345E+03  0.7818608E-02  0.1101890E+00
         21   -1    0    0  501  502  0.00000000000E+00  0.00000000000E+00  0.27727666738E+02  0.27727666738E+02  0.00000000000E+00 0. -1.
         21   -1    0    0  502  503 -0.00000000000E+00 -0.00000000000E+00 -0.27589860057E+04  0.27589860057E+04  0.00000000000E+00 0. -1.
         -6    2    1    2    0  503  0.44425433251E+02  0.20161771985E+03 -0.10341663221E+04  0.10684137257E+04  0.17141932026E+03 0.  0.
        -24    2    3    3    0    0  0.41430037168E+02  0.51408854298E+02 -0.25616000139E+03  0.27602013612E+03  0.78802607533E+02 0.  0.
          6    2    1    2  501    0 -0.44425433251E+02 -0.20161771985E+03 -0.16970920169E+04  0.17182999468E+04  0.17265592745E+03 0.  0.
         24    2    5    5    0    0 -0.45083821005E+02 -0.71826497899E+02 -0.63314439652E+03  0.64645442450E+03  0.99196267043E+02 0.  0.
          5    1    5    5  501    0  0.65838775328E+00 -0.12979122196E+03 -0.10639476204E+04  0.10718455223E+04  0.47000000000E+01 0. -1.
        -11    1    6    6    0    0  0.21374689320E+02  0.92916887633E+01 -0.74778582783E+02  0.78326555309E+02  0.00000000000E+00 0.  1.
         12    1    6    6    0    0 -0.66458510325E+02 -0.81118186662E+02 -0.55836581373E+03  0.56812786919E+03  0.00000000000E+00 0. -1.
         -5    1    3    3    0  503  0.29953960833E+01  0.15020886556E+03 -0.77800632073E+03  0.79239358956E+03  0.47000000000E+01 0.  1.
         13    1    4    4    0    0  0.33651525807E+02  0.28988049819E+02 -0.24638117971E+03  0.25035258723E+03  0.00000000000E+00 0. -1.
        -14    1    4    4    0    0  0.77785113607E+01  0.22420804479E+02 -0.97788216820E+01  0.25667548888E+02  0.00000000000E+00 0.  1.
</event>
<event>
12    1  0.8297444E-002  0.2982901E+03  0.7818608E-02  0.1086113E+00
         21   -1    0    0  501  502  0.00000000000E+00  0.00000000000E+00  0.83670535756E+03  0.83670535756E+03  0.00000000000E+00 0.  1.
         21   -1    0    0  502  503 -0.00000000000E+00 -0.00000000000E+00 -0.20267493370E+03  0.20267493370E+03  0.00000000000E+00 0.  1.
         -6    2    1    2    0  503  0.23375158607E+03  0.68472567736E+02  0.67534802021E+03  0.73824219075E+03  0.17198339243E+03 0.  0.
        -24    2    3    3    0    0  0.57480920063E+02  0.42783828891E+02  0.16369231755E+03  0.19644434370E+03  0.81613069793E+02 0.  0.
          6    2    1    2  501    0 -0.23375158607E+03 -0.68472567736E+02 -0.41317596351E+02  0.30113810051E+03  0.17218802306E+03 0.  0.
         24    2    5    5    0    0 -0.21334977334E+02  0.18339659032E+01  0.63661073035E+01  0.72315789678E+02  0.68778640767E+02 0.  0.
          5    1    5    5  501    0 -0.21241660874E+03 -0.70306533639E+02 -0.47683703654E+02  0.22882231083E+03  0.47000000000E+01 0. -1.
        -13    1    6    6    0    0 -0.24807801112E+02  0.19157523178E+02 -0.22422126582E+02  0.38538155778E+02  0.00000000000E+00 0.  1.
         14    1    6    6    0    0  0.34728237778E+01 -0.17323557275E+02  0.28788233885E+02  0.33777633900E+02  0.00000000000E+00 0. -1.
         -5    1    3    3    0  503  0.17627066601E+03  0.25688738844E+02  0.51165570267E+03  0.54179784705E+03  0.47000000000E+01 0.  1.
         13    1    4    4    0    0  0.69120194172E+02  0.35263332751E+02  0.16518905279E+03  0.18250623836E+03  0.00000000000E+00 0. -1.
        -14    1    4    4    0    0 -0.11639274108E+02  0.75204961401E+01 -0.14967352442E+01  0.13938105336E+02  0.00000000000E+00 0.  1.
</event>
<event>
12    1  0.8297444E-002  0.3283347E+03  0.7818608E-02  0.1072007E+00
         21   -1    0    0  503  502  0.00000000000E+00  0.00000000000E+00  0.15901297694E+04  0.15901297694E+04  0.00000000000E+00 0. -1.
         21   -1    0    0  501  503 -0.00000000000E+00 -0.00000000000E+00 -0.15041377610E+03  0.15041377610E+03  0.00000000000E+00 0.  1.
          6    2    1    2  501    0  0.55877364217E+02 -0.27424447926E+03  0.74507688377E+02  0.33668245002E+03  0.17167225252E+03 0.  0.
         24    2    3    3    0    0 -0.21011081280E+02 -0.95784977987E+02 -0.69898805923E+01  0.12591345231E+03  0.78670906302E+02 0.  0.
         -6    2    1    2    0  502 -0.55877364217E+02  0.27424447926E+03  0.13652083049E+04  0.14038610955E+04  0.16941058216E+03 0.  0.
        -24    2    5    5    0    0  0.19629527672E+02  0.13767919086E+03  0.87125834207E+03  0.88582632395E+03  0.79096773755E+02 0.  0.
          5    1    3    3  501    0  0.76888445497E+02 -0.17845950127E+03  0.81497568969E+02  0.21076899771E+03  0.47000000000E+01 0. -1.
        -13    1    4    4    0    0  0.29846248066E+02 -0.40722420760E+02  0.12649642542E+01  0.50504595937E+02  0.00000000000E+00 0.  1.
         14    1    4    4    0    0 -0.50857329346E+02 -0.55062557227E+02 -0.82548448464E+01  0.75408856377E+02  0.00000000000E+00 0. -1.
         -5    1    5    5    0  502 -0.75506891889E+02  0.13656528840E+03  0.49394996283E+03  0.51803477151E+03  0.47000000000E+01 0.  1.
         13    1    6    6    0    0 -0.85740825183E+01  0.89868960572E+02  0.69998205675E+03  0.70577958651E+03  0.00000000000E+00 0. -1.
        -14    1    6    6    0    0  0.28203610190E+02  0.47810230286E+02  0.17127628532E+03  0.18004673743E+03  0.00000000000E+00 0.  1.
</event>
<event>
12    1  0.8297444E-002  0.1738870E+03  0.7818608E-02  0.1174560E+00
         21   -1    0    0  503  502  0.00000000000E+00  0.00000000000E+00  0.30218258904E+03  0.30218258904E+03  0.00000000000E+00 0.  1.
         21   -1    0    0  501  503 -0.00000000000E+00 -0.00000000000E+00 -0.16127882003E+03  0.16127882003E+03  0.00000000000E+00 0.  1.
          6    2    1    2  501    0  0.22960147493E+01 -0.15086110554E+02 -0.74496910138E+02  0.18663268990E+03  0.17043799137E+03 0.  0.
         24    2    3    3    0    0  0.61448590599E+02 -0.91818255136E+01 -0.17294943874E+02  0.10400071815E+03  0.81589209366E+02 0.  0.
         -6    2    1    2    0  502 -0.22960147493E+01  0.15086110554E+02  0.21540067915E+03  0.27682871917E+03  0.17321612155E+03 0.  0.
        -24    2    5    5    0    0  0.22321280841E+02  0.47879118304E+02  0.21359968510E+03  0.23551617654E+03  0.83978535278E+02 0.  0.
          5    1    3    3  501    0 -0.59152575850E+02 -0.59042850407E+01 -0.57201966265E+02  0.82631971754E+02  0.47000000000E+01 0. -1.
        -11    1    4    4    0    0  0.57625148284E+02 -0.17983130135E+02 -0.44602507075E+02  0.75056207748E+02  0.00000000000E+00 0.  1.
         12    1    4    4    0    0  0.38234423148E+01  0.88013046211E+01  0.27307563201E+02  0.28944510398E+02  0.00000000000E+00 0. -1.
         -5    1    5    5    0  502 -0.24617295590E+02 -0.32793007750E+02  0.18009940470E+01  0.41312542635E+02  0.47000000000E+01 0.  1.
         13    1    6    6    0    0  0.14354329215E+02 -0.20938309740E+02  0.30107112307E+02  0.39381439708E+02  0.00000000000E+00 0. -1.
        -14    1    6    6    0    0  0.79669516260E+01  0.68817428044E+02  0.18349257279E+03  0.19613473683E+03  0.00000000000E+00 0.  1.
</event>
<event>
12    1  0.8297444E-002  0.1771704E+03  0.7818608E-02  0.1172639E+00
         21   -1    0    0  503  502  0.00000000000E+00  0.00000000000E+00  0.26140523069E+03  0.26140523069E+03  0.00000000000E+00 0. -1.
         21   -1    0    0  501  503 -0.00000000000E+00 -0.00000000000E+00 -0.18314535776E+03  0.18314535776E+03  0.00000000000E+00 0. -1.
          6    2    1    2  501    0 -0.27730346652E+02  0.26905208340E+01 -0.97399940080E+02  0.19505964343E+03  0.16668924722E+03 0.  0.
         24    2    3    3    0    0 -0.59223622348E+02  0.46817985942E+02 -0.42615626345E+02  0.11784260760E+03  0.79821220895E+02 0.  0.
         -6    2    1    2    0  502  0.27730346652E+02 -0.26905208340E+01  0.17565981301E+03  0.24949094503E+03  0.17496614163E+03 0.  0.
        -24    2    5    5    0    0  0.81774258991E+02  0.14604974038E+02  0.14272702289E+03  0.18371452624E+03  0.80496517862E+02 0.  0.
          5    1    3    3  501    0  0.31493275696E+02 -0.44127465108E+02 -0.54784313735E+02  0.77217035830E+02  0.47000000000E+01 0. -1.
        -11    1    4    4    0    0 -0.65097844791E+02  0.24875544039E+02 -0.15623700863E+00  0.69688926651E+02  0.00000000000E+00 0.  1.
         12    1    4    4    0    0  0.58742224434E+01  0.21942441903E+02 -0.42459389336E+02  0.48153680948E+02  0.00000000000E+00 0. -1.
         -5    1    5    5    0  502 -0.54043912339E+02 -0.17295494872E+02  0.32932790116E+02  0.65776418788E+02  0.47000000000E+01 0.  1.
         11    1    6    6    0    0  0.79121647950E+01 -0.24036836299E+02  0.64949393556E+02  0.69705061325E+02  0.00000000000E+00 0. -1.
        -12    1    6    6    0    0  0.73862094196E+02  0.38641810337E+02  0.77777629334E+02  0.11400946491E+03  0.00000000000E+00 0.  1.
</event>
<event>
12    1  0.8297444E-002  0.1837709E+03  0.7818608E-02  0.1164651E+00
         21   -1    0    0  501  502  0.00000000000E+00  0.00000000000E+00  0.32263065960E+02  0.32263065960E+02  0.00000000000E+00 0.  1.
         21   -1    0    0  502  503 -0.00000000000E+00 -0.00000000000E+00 -0.12891713154E+04  0.12891713154E+04  0.00000000000E+00 0.  1.
         -6    2    1    2    0  503  0.61408006833E+02  0.86370363136E+01 -0.91862882610E+03  0.93646071837E+03  0.17098016026E+03 0.  0.
        -24    2    3    3    0    0 -0.77504018907E+01  0.52188943681E+02 -0.39661452809E+03  0.40806629045E+03  0.80195130360E+02 0.  0.
          6    2    1    2  501    0 -0.61408006833E+02 -0.86370363136E+01 -0.33827942332E+03  0.38497366298E+03  0.17299193982E+03 0.  0.
         24    2    5    5    0    0 -0.55500182207E+02  0.38326084060E+02 -0.31522166599E+03  0.33211359071E+03  0.79909820914E+02 0.  0.
          5    1    5    5  501    0 -0.59078246264E+01 -0.46963120373E+02 -0.23057757332E+02  0.52860072268E+02  0.47000000000E+01 0. -1.
        -11    1    6    6    0    0 -0.46455187665E+02  0.32408862479E+01 -0.69023686195E+02  0.83263780004E+02  0.00000000000E+00 0.  1.
         12    1    6    6    0    0 -0.90449945423E+01  0.35085197812E+02 -0.24619797980E+03  0.24884981070E+03  0.00000000000E+00 0. -1.
         -5    1    3    3    0  503  0.69158408724E+02 -0.43551907367E+02 -0.52201429800E+03  0.52839442792E+03  0.47000000000E+01 0.  1.
         11    1    4    4    0    0  0.12100404140E+02  0.49938338354E+02 -0.37549635587E+03  0.37899573967E+03  0.00000000000E+00 0. -1.
        -12    1    4    4    0    0 -0.19850806030E+02  0.22506053263E+01 -0.21118172225E+02  0.29070550778E+02  0.00000000000E+00 0.  1.
</event>
<event>
12    1  0.8297444E-002  0.1878939E+03  0.7818608E-02  0.1163765E+00
         21   -1    0    0  503  502  0.00000000000E+00  0.00000000000E+00  0.84947387617E+02  0.84947387617E+02  0.00000000000E+00 0. -1.
         21   -1    0    0  501  503 -0.00000000000E+00 -0.00000000000E+00 -0.56936873046E+03  0.56936873046E+03  0.00000000000E+00 0. -1.
          6    2    1    2  501    0 -0.72336038299E+02 -0.68981430088E+01 -0.43483354034E+03  0.47369222757E+03  0.17327444083E+03 0.  0.
         24    2    3    3    0    0  0.25157154652E+02 -0.59881249694E-01 -0.14363830709E+03  0.16649776414E+03  0.80353320930E+02 0.  0.
         -6    2    1    2    0  502  0.72336038299E+02  0.68981430088E+01 -0.49587802511E+02  0.18062389051E+03  0.15775282201E+03 0.  0.
        -24    2    5    5    0    0  0.66179197036E+02 -0.36868596798E+02  0.55669923126E+01  0.10978904316E+03  0.79269559375E+02 0.  0.
          5    1    3    3  501    0 -0.97493192952E+02 -0.68382617591E+01 -0.29119523325E+03  0.30719446343E+03  0.47000000000E+01 0. -1.
        -11    1    4    4    0    0  0.26099565155E+02  0.34622949615E+02 -0.47613418771E+02  0.64396999840E+02  0.00000000000E+00 0.  1.
         12    1    4    4    0    0 -0.94241050261E+00 -0.34682830864E+02 -0.96024888316E+02  0.10210076430E+03  0.00000000000E+00 0. -1.
         -5    1    5    5    0  502  0.61568412631E+01  0.43766739807E+02 -0.55154794823E+02  0.70834847354E+02  0.47000000000E+01 0.  1.
         13    1    6    6    0    0  0.57947650321E+02 -0.26071622347E+02 -0.31059371080E+02  0.70727252184E+02  0.00000000000E+00 0. -1.
        -14    1    6    6    0    0  0.82315467147E+01 -0.10796974452E+02  0.36626363392E+02  0.39061790973E+02  0.00000000000E+00 0.  1.
</event>
<event>
12    1  0.8297444E-002  0.1788709E+03  0.7818608E-02  0.1168931E+00
         21   -1    0    0  503  502  0.00000000000E+00  0.00000000000E+00  0.90056986816E+02  0.90056986816E+02  0.00000000000E+00 0. -1.
         21   -1    0    0  501  503 -0.00000000000E+00 -0.00000000000E+00 -0.35511798672E+03  0.35511798672E+03  0.00000000000E+00 0. -1.
          6    2    1    2  501    0  0.50375412282E+01 -0.49250609118E+02 -0.13618453435E+03  0.22471195721E+03  0.17175050800E+03 0.  0.
         24    2    3    3    0    0  0.62345997822E+02 -0.61450615213E+02 -0.10253687353E+03  0.15698194596E+03  0.80413427799E+02 0.  0.
         -6    2    1    2    0  502 -0.50375412282E+01  0.49250609118E+02 -0.12887646556E+03  0.22046301633E+03  0.17188309653E+03 0.  0.
        -24    2    5    5    0    0 -0.58782930133E+02  0.21428230557E+02 -0.37327470941E+02  0.11061785260E+03  0.83236814497E+02 0.  0.
          5    1    3    3  501    0 -0.57308456594E+02  0.12200006094E+02 -0.33647660821E+02  0.67730011255E+02  0.47000000000E+01 0. -1.
        -11    1    4    4    0    0 -0.15704173851E+02 -0.28534838951E+02 -0.17584389355E+02  0.37014441226E+02  0.00000000000E+00 0.  1.
         12    1    4    4    0    0  0.78050171673E+02 -0.32915776262E+02 -0.84952484171E+02  0.11996750473E+03  0.00000000000E+00 0. -1.
         -5    1    5    5    0  502  0.53745388905E+02  0.27822378561E+02 -0.91548994621E+02  0.10984516372E+03  0.47000000000E+01 0.  1.
         13    1    6    6    0    0 -0.55931366394E+02 -0.17987445043E+02 -0.39892450472E+02  0.71016008974E+02  0.00000000000E+00 0. -1.
        -14    1    6    6    0    0 -0.28515637388E+01  0.39415675600E+02  0.25649795313E+01  0.39601843628E+02  0.00000000000E+00 0.  1.
</event>
<event>
12    1  0.8297444E-002  0.2449626E+03  0.7818608E-02  0.1117366E+00
         21   -1    0    0  501  502  0.00000000000E+00  0.00000000000E+00  0.33236079801E+03  0.33236079801E+03  0.00000000000E+00 0.  1.
         21   -1    0    0  502  503 -0.00000000000E+00 -0.00000000000E+00 -0.38705584514E+03  0.38705584514E+03  0.00000000000E+00 0.  1.
         -6    2    1    2    0  503  0.50528681693E+02  0.16828625410E+03 -0.29231821123E+03  0.37813748726E+03  0.16329302391E+03 0.  0.
        -24    2    3    3    0    0  0.74112573884E+02  0.86019059288E+02 -0.22040691288E+03  0.26625622813E+03  0.97062967211E+02 0.  0.
          6    2    1    2  501    0 -0.50528681693E+02 -0.16828625410E+03  0.23762316411E+03  0.34127915590E+03  0.17068474782E+03 0.  0.
         24    2    5    5    0    0  0.32352082655E+02 -0.63970461413E+02  0.91216072880E+02  0.14326872167E+03  0.84063532350E+02 0.  0.
          5    1    5    5  501    0 -0.82880764348E+02 -0.10431579269E+03  0.14640709123E+03  0.19801043423E+03  0.47000000000E+01 0. -1.
        -13    1    6    6    0    0 -0.90185731094E+01 -0.39772507965E+02  0.63234241578E+00  0.40787092415E+02  0.00000000000E+00 0.  1.
         14    1    6    6    0    0  0.41370655765E+02 -0.24197953448E+02  0.90583730464E+02  0.10248162925E+03  0.00000000000E+00 0. -1.
         -5    1    3    3    0  503 -0.23583892192E+02  0.82267194813E+02 -0.71911298355E+02  0.11188125913E+03  0.47000000000E+01 0.  1.
         11    1    4    4    0    0 -0.11832465013E+02  0.31104255924E+02 -0.14153597390E+02  0.36163604410E+02  0.00000000000E+00 0. -1.
        -12    1    4    4    0    0  0.85945038897E+02  0.54914803365E+02 -0.20625331549E+03  0.23009262372E+03  0.00000000000E+00 0.  1.
</event>
<event>
12    1  0.8297444E-002  0.1969955E+03  0.7818608E-02  0.1152422E+00
         21   -1    0    0  503  502  0.00000000000E+00  0.00000000000E+00  0.22855409676E+03  0.22855409676E+03  0.00000000000E+00 0. -1.
         21   -1    0    0  501  503 -0.00000000000E+00 -0.00000000000E+00 -0.23920237969E+03  0.23920237969E+03  0.00000000000E+00 0. -1.
          6    2    1    2  501    0  0.31170822398E+02 -0.89233760340E+02 -0.13175795233E+03  0.23699659377E+03  0.17283791049E+03 0.  0.
         24    2    3    3    0    0  0.73852359461E+02 -0.18416405691E+02 -0.98674323132E+02  0.14781460093E+03  0.79493390967E+02 0.  0.
         -6    2    1    2    0  502 -0.31170822398E+02  0.89233760340E+02  0.12110966940E+03  0.23075988267E+03  0.17218678019E+03 0.  0.
        -24    2    5    5    0    0 -0.40768783255E+01  0.12338883019E+03  0.11432029676E+03  0.18638831314E+03  0.80187584275E+02 0.  0.
          5    1    3    3  501    0 -0.42681537063E+02 -0.70817354649E+02 -0.33083629201E+02  0.89181992839E+02  0.47000000000E+01 0. -1.
        -13    1    4    4    0    0  0.34645039488E+02 -0.88010278740E+01  0.54315323045E+01  0.36155751907E+02  0.00000000000E+00 0.  1.
         14    1    4    4    0    0  0.39207319973E+02 -0.96153778168E+01 -0.10410585544E+03  0.11165884903E+03  0.00000000000E+00 0. -1.
         -5    1    5    5    0  502 -0.27093944073E+02 -0.34155069848E+02  0.67893726438E+01  0.44371569531E+02  0.47000000000E+01 0.  1.
         11    1    6    6    0    0 -0.13554016553E+01  0.11281091249E+03  0.53980842325E+02  0.12506826308E+03  0.00000000000E+00 0. -1.
        -12    1    6    6    0    0 -0.27214766702E+01  0.10577917694E+02  0.60339454435E+02  0.61320050061E+02  0.00000000000E+00 0.  1.
</event>
<event>
12    1  0.8297444E-002  0.1973506E+03  0.7818608E-02  0.1152089E+00
         21   -1    0    0  503  502  0.00000000000E+00  0.00000000000E+00  0.19699552143E+03  0.19699552143E+03  0.00000000000E+00 0. -1.
         21   -1    0    0  501  503 -0.00000000000E+00 -0.00000000000E+00 -0.20169002015E+03  0.20169002015E+03  0.00000000000E+00 0. -1.
          6    2    1    2  501    0 -0.74737211910E+01 -0.93775671181E+02 -0.31889886880E+02  0.19991050135E+03  0.17348634140E+03 0.  0.
         24    2    3    3    0    0 -0.49265572473E+01  0.15702294180E+02 -0.37715990372E+02  0.90147363522E+02  0.80207345121E+02 0.  0.
         -6    2    1    2    0  502  0.74737211910E+01  0.93775671181E+02  0.27195388159E+02  0.19877504024E+03  0.17298032972E+03 0.  0.
        -24    2    5    5    0    0  0.63677824795E+01  0.50655169168E+02  0.85094763319E+02  0.12642154386E+03  0.78324920618E+02 0.  0.
          5    1    3    3  501    0 -0.25471639436E+01 -0.10947796536E+03  0.58261034918E+01  0.10976313783E+03  0.47000000000E+01 0. -1.
        -11    1    4    4    0    0 -0.78395935331E+01  0.40946938792E+02  0.33817324582E+01  0.41827588235E+02  0.00000000000E+00 0.  1.
         12    1    4    4    0    0  0.29130362858E+01 -0.25244644611E+02 -0.41097722830E+02  0.48319775287E+02  0.00000000000E+00 0. -1.
         -5    1    5    5    0  502  0.11059387114E+01  0.43120502013E+02 -0.57899375160E+02  0.72353496379E+02  0.47000000000E+01 0.  1.
         13    1    6    6    0    0  0.14509928942E+02  0.60949669946E+02  0.29412732953E+02  0.69213504204E+02  0.00000000000E+00 0. -1.
        -14    1    6    6    0    0 -0.81421464626E+01 -0.10294500778E+02  0.55682030367E+02  0.57208039654E+02  0.00000000000E+00 0.  1.
</event>
<event>
12    1  0.8297444E-002  0.1978986E+03  0.7818608E-02  0.1154360E+00
         21   -1    0    0  501  502  0.00000000000E+00  0.00000000000E+00  0.17977872211E+03  0.17977872211E+03  0.00000000000E+00 0.  1.
         21   -1    0    0  502  503 -0.00000000000E+00 -0.00000000000E+00 -0.24265384341E+03  0.24265384341E+03  0.00000000000E+00 0.  1.
         -6    2    1    2    0  503  0.52666873817E+02  0.40373768823E+02 -0.11482963917E+03  0.21782773368E+03  0.17279824861E+03 0.  0.
        -24    2    3    3    0    0  0.49965655497E+02  0.31023013413E+02  0.39485648642E+01  0.98558773089E+02  0.78988901105E+02 0.  0.
          6    2    1    2  501    0 -0.52666873817E+02 -0.40373768823E+02  0.51954517865E+02  0.20460483184E+03  0.18644040464E+03 0.  0.
         24    2    5    5    0    0 -0.97194852402E+02  0.64993484967E+01  0.58124994356E+02  0.13948958951E+03  0.81177273596E+02 0.  0.
          5    1    5    5  501    0  0.44527978584E+02 -0.46873117320E+02 -0.61704764906E+01  0.65115242334E+02  0.47000000000E+01 0. -1.
        -11    1    6    6    0    0 -0.16053912021E+02 -0.22078312352E+02 -0.10699519690E+02  0.29319953770E+02  0.00000000000E+00 0.  1.
         12    1    6    6    0    0 -0.81140940380E+02  0.28577660848E+02  0.68824514046E+02  0.11016963574E+03  0.00000000000E+00 0. -1.
         -5    1    3    3    0  503  0.27012183203E+01  0.93507554098E+01 -0.11877820403E+03  0.11926896059E+03  0.47000000000E+01 0.  1.
         13    1    4    4    0    0  0.21913544290E+02 -0.12029288258E+02  0.31531540256E+02  0.40238603731E+02  0.00000000000E+00 0. -1.
        -14    1    4    4    0    0  0.28052111208E+02  0.43052301671E+02 -0.27582975392E+02  0.58320169357E+02  0.00000000000E+00 0.  1.
</event>
<event>
12    1  0.8297444E-002  0.2775922E+03  0.7818608E-02  0.1097060E+00
         21   -1    0    0  503  502  0.00000000000E+00  0.00000000000E+00  0.51659901987E+03  0.51659901987E+03  0.00000000000E+00 0.  1.
         21   -1    0    0  501  503 -0.00000000000E+00 -0.00000000000E+00 -0.20189472101E+03  0.20189472101E+03  0.00000000000E+00 0. -1.
          6    2    1    2  501    0 -0.20075149524E+03 -0.84089437048E+02 -0.26645573895E+02  0.27851971928E+03  0.17172958731E+03 0.  0.
         24    2    3    3    0    0 -0.62316585887E+02 -0.86007751115E+02 -0.43296088410E+02  0.13899469038E+03  0.78512945136E+02 0.  0.
         -6    2    1    2    0  502  0.20075149524E+03  0.84089437048E+02  0.34134987275E+03  0.43997402160E+03  0.17229395749E+03 0.  0.
        -24    2    5    5    0    0  0.11130012173E+03 -0.13411944159E+02  0.11498031311E+03  0.17772731505E+03  0.76150697770E+02 0.  0.
          5    1    3    3  501    0 -0.13843490935E+03  0.19183140664E+01  0.16650514516E+02  0.13952502890E+03  0.47000000000E+01 0. -1.
        -11    1    4    4    0    0 -0.20614702443E+02 -0.42412346471E+02 -0.60077908143E+02  0.76374918244E+02  0.00000000000E+00 0.  1.
         12    1    4    4    0    0 -0.41701883444E+02 -0.43595404644E+02  0.16781819733E+02  0.62619772136E+02  0.00000000000E+00 0. -1.
         -5    1    5    5    0  502  0.89451373512E+02  0.97501381207E+02  0.22636955964E+03  0.26224670655E+03  0.47000000000E+01 0.  1.
         11    1    6    6    0    0  0.39859201815E+02 -0.19920024469E+02  0.92295754484E+02  0.10248936355E+03  0.00000000000E+00 0. -1.
        -12    1    6    6    0    0  0.71440919910E+02  0.65080803103E+01  0.22684558625E+02  0.75237951507E+02  0.00000000000E+00 0.  1.
</event>
<event>
12    1  0.8297444E-002  0.1829728E+03  0.7818608E-02  0.1165337E+00
         21   -1    0    0  501  502  0.00000000000E+00  0.00000000000E+00  0.35050644927E+03  0.35050644927E+03  0.00000000000E+00 0. -1.
         21   -1    0    0  502  503 -0.00000000000E+00 -0.00000000000E+00 -0.11254873677E+03  0.11254873677E+03  0.00000000000E+00 0. -1.
         -6    2    1    2    0  503 -0.45736799184E+02 -0.38908582507E+02  0.27175915756E+02  0.18497991288E+03  0.17283895735E+03 0.  0.
        -24    2    3    3    0    0  0.11300933517E+02  0.16480330786E+02  0.52670622096E+02  0.10135393175E+03  0.84256232105E+02 0.  0.
          6    2    1    2  501    0  0.45736799184E+02  0.38908582507E+02  0.21078179675E+03  0.27807527316E+03  0.17114660123E+03 0.  0.
         24    2    5    5    0    0  0.50191807023E+02 -0.40197786792E+02  0.14486131860E+03  0.17489938355E+03  0.73958861426E+02 0.  0.
          5    1    5    5  501    0 -0.44550078396E+01  0.79106369299E+02  0.65920478145E+02  0.10317588961E+03  0.47000000000E+01 0. -1.
        -11    1    6    6    0    0  0.22257828358E+02 -0.42517307204E+02  0.13790802294E+03  0.14601970800E+03  0.00000000000E+00 0.  1.
         12    1    6    6    0    0  0.27933978666E+02  0.23195204116E+01  0.69532956658E+01  0.28879675546E+02  0.00000000000E+00 0. -1.
         -5    1    3    3    0  503 -0.57037732701E+02 -0.55388913292E+02 -0.25494706340E+02  0.83625981123E+02  0.47000000000E+01 0.  1.
         11    1    4    4    0    0  0.21343158391E+02 -0.28644768221E+02  0.70616290267E+01  0.36413181144E+02  0.00000000000E+00 0. -1.
        -12    1    4    4    0    0 -0.10042224874E+02  0.45125099006E+02  0.45608993070E+02  0.64940750608E+02  0.00000000000E+00 0.  1.
</event>
<event>
12    1  0.8297444E-002  0.2463755E+03  0.7818608E-02  0.1115721E+00
         21   -1    0    0  501  502  0.00000000000E+00  0.00000000000E+00  0.23915550050E+03  0.23915550050E+03  0.00000000000E+00 0.  1.
         21   -1    0    0  502  503 -0.00000000000E+00 -0.00000000000E+00 -0.34088314401E+03  0.34088314401E+03  0.00000000000E+00 0. -1.
         -6    2    1    2    0  503 -0.72156444378E+01 -0.17571972428E+03 -0.19804700902E+03  0.31610683085E+03  0.17254397614E+03 0.  0.
        -24    2    3    3    0    0 -0.55109289078E+02 -0.45280899483E+02 -0.92449774830E+02  0.14151887571E+03  0.79957724550E+02 0.  0.
          6    2    1    2  501    0  0.72156444378E+01  0.17571972428E+03  0.96319365512E+02  0.26393181367E+03  0.17161904052E+03 0.  0.
         24    2    5    5    0    0  0.13255999997E+02  0.17920885103E+03  0.12575437511E+03  0.23331858629E+03  0.79573023209E+02 0.  0.
          5    1    5    5  501    0 -0.60403555594E+01 -0.34891267583E+01 -0.29435009595E+02  0.30613227381E+02  0.47000000000E+01 0. -1.
        -11    1    6    6    0    0  0.15042869532E+02  0.13319375721E+02  0.43997398969E+02  0.48368014321E+02  0.00000000000E+00 0.  1.
         12    1    6    6    0    0 -0.17868695348E+01  0.16588947531E+03  0.81756976138E+02  0.18495057196E+03  0.00000000000E+00 0. -1.
         -5    1    3    3    0  503  0.47893644640E+02 -0.13043882479E+03 -0.10559723419E+03  0.17458795514E+03  0.47000000000E+01 0.  1.
         13    1    4    4    0    0 -0.58958907292E+00 -0.15320889802E+02 -0.75500994990E+02  0.77042050363E+02  0.00000000000E+00 0. -1.
        -14    1    4    4    0    0 -0.54519700005E+02 -0.29960009681E+02 -0.16948779840E+02  0.64476825347E+02  0.00000000000E+00 0.  1.
</event>
<event>
12    1  0.8297444E-002  0.1897878E+03  0.7818608E-02  0.1159489E+00
         21   -1    0    0  501  502  0.00000000000E+00  0.00000000000E+00  0.45897822191E+02  0.45897822191E+02  0.00000000000E+00 0.  1.
         21   -1    0    0  502  503 -0.00000000000E+00 -0.00000000000E+00 -0.83678467501E+03  0.83678467501E+03  0.00000000000E+00 0. -1.
         -6    2    1    2    0  503  0.49839028311E+02  0.59746125419E+02 -0.51686404128E+03  0.54935395806E+03  0.16907928858E+03 0.  0.
        -24    2    3    3    0    0  0.14372458181E+02  0.32752460093E+02 -0.48876295304E+03  0.49645502873E+03  0.79366744212E+02 0.  0.
          6    2    1    2  501    0 -0.49839028311E+02 -0.59746125419E+02 -0.27402281155E+03  0.33332853914E+03  0.17310657271E+03 0.  0.
         24    2    5    5    0    0 -0.99301965128E+02 -0.34680259184E+02 -0.17010349598E+03  0.21544642041E+03  0.80114668249E+02 0.  0.
          5    1    5    5  501    0  0.49462936817E+02 -0.25065866235E+02 -0.10391931556E+03  0.11788211873E+03  0.47000000000E+01 0. -1.
        -13    1    6    6    0    0  0.73127963528E+01 -0.15870728117E+02 -0.52926737448E+01  0.18258406196E+02  0.00000000000E+00 0.  1.
         14    1    6    6    0    0 -0.10661476148E+03 -0.18809531067E+02 -0.16481082224E+03  0.19718801422E+03  0.00000000000E+00 0. -1.
         -5    1    3    3    0  503  0.35466570131E+02  0.26993665326E+02 -0.28101088232E+02  0.52898929331E+02  0.47000000000E+01 0.  1.
         13    1    4    4    0    0 -0.30675306760E+02  0.77383970349E+00 -0.21448121627E+03  0.21666509965E+03  0.00000000000E+00 0. -1.
        -14    1    4    4    0    0  0.45047764941E+02  0.31978620390E+02 -0.27428173677E+03  0.27978992908E+03  0.00000000000E+00 0.  1.
</event>
<event>
12    1  0.8297444E-002  0.1797543E+03  0.7818608E-02  0.1168081E+00
         21   -1    0    0  503  502  0.00000000000E+00  0.00000000000E+00  0.72149439623E+02  0.72149439623E+02  0.00000000000E+00 0. -1.
         21   -1    0    0  501  503 -0.00000000000E+00 -0.00000000000E+00 -0.20770408424E+04  0.20770408424E+04  0.00000000000E+00 0. -1.
          6    2    1    2  501    0 -0.28097171245E+02  0.45729012967E+02 -0.19541869234E+04  0.19624215202E+04  0.17137998053E+03 0.  0.
         24    2    3    3    0    0  0.19116460828E+02  0.79739982719E+02 -0.10160754414E+04  0.10224953977E+04  0.79772374767E+02 0.  0.
         -6    2    1    2    0  502  0.28097171245E+02 -0.45729012967E+02 -0.50704479301E+02  0.18676876174E+03  0.17155475068E+03 0.  0.
        -24    2    5    5    0    0 -0.39924297729E+02 -0.59122590013E+02 -0.97531798623E+01  0.10611265798E+03  0.77944476828E+02 0.  0.
          5    1    3    3  501    0 -0.47213632073E+02 -0.34010969752E+02 -0.93811148204E+03  0.93992612255E+03  0.47000000000E+01 0. -1.
        -11    1    4    4    0    0  0.23903552830E+02  0.32666755699E+02 -0.15754187332E+03  0.16265896414E+03  0.00000000000E+00 0.  1.
         12    1    4    4    0    0 -0.47870920019E+01  0.47073227021E+02 -0.85853356808E+03  0.85983643355E+03  0.00000000000E+00 0. -1.
         -5    1    5    5    0  502  0.68021468974E+02  0.13393577046E+02 -0.40951299439E+02  0.80656103756E+02  0.47000000000E+01 0.  1.
         13    1    6    6    0    0 -0.21526230298E+02 -0.29173117455E+01  0.28383808606E+02  0.35742550128E+02  0.00000000000E+00 0. -1.
        -14    1    6    6    0    0 -0.18398067431E+02 -0.56205278268E+02 -0.38136988468E+02  0.70370107856E+02  0.00000000000E+00 0.  1.
</event>
<event>
12    1  0.8297444E-002  0.1918883E+03  0.7818608E-02  0.1157435E+00
         21   -1    0    0  503  502  0.00000000000E+00  0.00000000000E+00  0.11842316998E+03  0.11842316998E+03  0.00000000000E+00 0.  1.
         21   -1    0    0  501  503 -0.00000000000E+00 -0.00000000000E+00 -0.30615503806E+03  0.30615503806E+03  0.00000000000E+00 0.  1.
          6    2    1    2  501    0 -0.61971460508E+02  0.48343722714E+02 -0.91654005512E+02  0.20998073918E+03  0.17179603214E+03 0.  0.
         24    2    3    3    0    0 -0.10800771638E+03  0.29700208379E+02 -0.75802129182E+02  0.15763296497E+03  0.80959370570E+02 0.  0.
         -6    2    1    2    0  502  0.61971460508E+02 -0.48343722714E+02 -0.96077862563E+02  0.21459746886E+03  0.17505296490E+03 0.  0.
        -24    2    5    5    0    0  0.54024600724E+02 -0.97856856335E+02 -0.88743141264E+02  0.16369961902E+03  0.80172304015E+02 0.  0.
          5    1    3    3  501    0  0.46036255871E+02  0.18643514335E+02 -0.15851876329E+02  0.52347774208E+02  0.47000000000E+01 0. -1.
        -13    1    4    4    0    0 -0.58040485578E+01  0.32825632639E+02 -0.32611611734E+02  0.46633961420E+02  0.00000000000E+00 0.  1.
         14    1    4    4    0    0 -0.10220366782E+03 -0.31254242594E+01 -0.43190517448E+02  0.11099900356E+03  0.00000000000E+00 0. -1.
         -5    1    5    5    0  502  0.79468597842E+01  0.49513133621E+02 -0.73347212986E+01  0.50897849836E+02  0.47000000000E+01 0.  1.
         13    1    6    6    0    0  0.35350330414E+02  0.25270717440E+01 -0.23790684572E+02  0.42685227239E+02  0.00000000000E+00 0. -1.
        -14    1    6    6    0    0  0.18674270310E+02 -0.10038392808E+03 -0.64952456692E+02  0.12101439178E+03  0.00000000000E+00 0.  1.
</event>
<event>
12    1  0.8297444E-002  0.1942658E+03  0.7818608E-02  0.1155232E+00
         21   -1    0    0  503  502  0.00000000000E+00  0.00000000000E+00  0.70096449287E+02  0.70096449287E+02  0.00000000000E+00 0. -1.
         21   -1    0    0  501  503 -0.00000000000E+00 -0.00000000000E+00 -0.12177271270E+04  0.12177271270E+04  0.00000000000E+00 0. -1.
          6    2    1    2  501    0  0.74035711495E+02  0.47066684637E+02 -0.10555877449E+04  0.10728558641E+04  0.17046307124E+03 0.  0.
         24    2    3    3    0    0  0.82516318862E+02 -0.25206362078E+02 -0.64181572750E+03  0.65270745421E+03  0.81579955550E+02 0.  0.
         -6    2    1    2    0  502 -0.74035711495E+02 -0.47066684637E+02 -0.92042932841E+02  0.21496771218E+03  0.17332817547E+03 0.  0.
        -24    2    5    5    0    0 -0.10131830235E+03 -0.79082165070E+02 -0.66824940320E+02  0.16569938667E+03  0.80444557750E+02 0.  0.
          5    1    3    3  501    0 -0.84806073662E+01  0.72273046716E+02 -0.41377201739E+03  0.42014840992E+03  0.47000000000E+01 0. -1.
        -13    1    4    4    0    0  0.49202174185E+02  0.11931655677E+01 -0.12799119900E+03  0.13712776746E+03  0.00000000000E+00 0.  1.
         14    1    4    4    0    0  0.33314144676E+02 -0.26399527646E+02 -0.51382452850E+03  0.51557968675E+03  0.00000000000E+00 0. -1.
         -5    1    5    5    0  502  0.27282590855E+02  0.32015480433E+02 -0.25217992521E+02  0.49268325504E+02  0.47000000000E+01 0.  1.
         11    1    6    6    0    0 -0.61662390153E+02 -0.13721112556E+02  0.14685637501E+01  0.63187625123E+02  0.00000000000E+00 0. -1.
        -12    1    6    6    0    0 -0.39655912197E+02 -0.65361052514E+02 -0.68293504070E+02  0.10251176155E+03  0.00000000000E+00 0.  1.
</event>
<event>
12    1  0.8297444E-002  0.1892664E+03  0.7818608E-02  0.1159762E+00
         21   -1    0    0  501  502  0.00000000000E+00  0.00000000000E+00  0.27959564888E+02  0.27959564888E+02  0.00000000000E+00 0.  1.
         21   -1    0    0  502  503 -0.00000000000E+00 -0.00000000000E+00 -0.14100191230E+04  0.14100191230E+04  0.00000000000E+00 0. -1.
         -6    2    1    2    0  503 -0.23023816460E+02 -0.71340369258E+02 -0.92826951361E+03  0.94736796539E+03  0.17378788091E+03 0.  0.
        -24    2    3    3    0    0 -0.79552030358E+02 -0.68358562135E+02 -0.69080874368E+03  0.70320810507E+03  0.79268531819E+02 0.  0.
          6    2    1    2  501    0  0.23023816460E+02  0.71340369258E+02 -0.45379004452E+03  0.49061072251E+03  0.17074522578E+03 0.  0.
         24    2    5    5    0    0  0.14489699886E+02 -0.15024950067E+02 -0.12272912084E+03  0.14833126838E+03  0.80647551428E+02 0.  0.
          5    1    5    5  501    0  0.85341165746E+01  0.86365319325E+02 -0.33106092368E+03  0.34227945412E+03  0.47000000000E+01 0. -1.
        -11    1    6    6    0    0 -0.50112737710E+01  0.14746892953E+02  0.45047656501E+01  0.16213470638E+02  0.00000000000E+00 0.  1.
         12    1    6    6    0    0  0.19500973657E+02 -0.29771843020E+02 -0.12723388649E+03  0.13211779775E+03  0.00000000000E+00 0. -1.
         -5    1    3    3    0  503  0.56528213897E+02 -0.29818071225E+01 -0.23746076992E+03  0.24415986032E+03  0.47000000000E+01 0.  1.
         13    1    4    4    0    0 -0.51786383464E+02 -0.37803654400E+02 -0.18652679012E+03  0.19723891409E+03  0.00000000000E+00 0. -1.
        -14    1    4    4    0    0 -0.27765646894E+02 -0.30554907736E+02 -0.50428195356E+03  0.50596919098E+03  0.00000000000E+00 0.  1.
</event>
<event>
12    1  0.8297444E-002  0.1785376E+03  0.7818608E-02  0.1169936E+00
         21   -1    0    0  503  502  0.00000000000E+00  0.00000000000E+00  0.19266834856E+03  0.19266834856E+03  0.00000000000E+00 0.  1.
         21   -1    0    0  501  503 -0.00000000000E+00 -0.00000000000E+00 -0.16300769083E+03  0.16300769083E+03  0.00000000000E+00 0.  1.
          6    2    1    2  501    0  0.21691350414E+02 -0.32729872639E+02  0.21499944861E+02  0.17982751021E+03  0.17416637607E+03 0.  0.
         24    2    3    3    0    0  0.25206315571E+02 -0.82026826930E+02 -0.13735228831E+02  0.11894933557E+03  0.81219020193E+02 0.  0.
         -6    2    1    2    0  502 -0.21691350414E+02  0.32729872639E+02  0.81607128681E+01  0.17584852918E+03  0.17121433566E+03 0.  0.
        -24    2    5    5    0    0 -0.72480582044E+02 -0.74123264600E+01  0.14334718341E+02  0.11064768148E+03  0.82030774161E+02 0.  0.
          5    1    3    3  501    0 -0.35149651573E+01  0.49296954291E+02  0.35235173692E+02  0.60878174640E+02  0.47000000000E+01 0. -1.
        -13    1    4    4    0    0 -0.29189133774E+02 -0.37841624533E+02 -0.96122484176E+01  0.48748224556E+02  0.00000000000E+00 0.  1.
         14    1    4    4    0    0  0.54395449345E+02 -0.44185202397E+02 -0.41229804135E+01  0.70201111016E+02  0.00000000000E+00 0. -1.
         -5    1    5    5    0  502  0.50789231630E+02  0.40142199099E+02 -0.61740054729E+01  0.65200847707E+02  0.47000000000E+01 0.  1.
         13    1    6    6    0    0 -0.17932915311E+02 -0.11693112744E+02 -0.32302916177E+02  0.38753022214E+02  0.00000000000E+00 0. -1.
        -14    1    6    6    0    0 -0.54547666732E+02  0.42807862837E+01  0.46637634518E+02  0.71894659263E+02  0.00000000000E+00 0.  1.
</event>
<event>
12    1  0.8297444E-002  0.2392687E+03  0.7818608E-02  0.1120665E+00
         21   -1    0    0  503  502  0.00000000000E+00  0.00000000000E+00  0.22448341534E+03  0.22448341534E+03  0.00000000000E+00 0. -1.
         21   -1    0    0  501  503 -0.00000000000E+00 -0.00000000000E+00 -0.59935047195E+03  0.59935047195E+03  0.00000000000E+00 0.  1.
          6    2    1    2  501    0 -0.15859346114E+03  0.48253831497E+02 -0.50112522221E+03  0.55531610986E+03  0.17253746077E+03 0.  0.
         24    2    3    3    0    0 -0.75667872316E+02 -0.14033981015E+02 -0.36270815307E+03  0.38229067850E+03  0.93093388819E+02 0.  0.
         -6    2    1    2    0  502  0.15859346114E+03 -0.48253831497E+02  0.12625816560E+03  0.26851777742E+03  0.16935275090E+03 0.  0.
        -24    2    5    5    0    0  0.12981485827E+03 -0.37343908982E+02  0.15916036294E+03  0.22322010659E+03  0.79048908222E+02 0.  0.
          5    1    3    3  501    0 -0.82925588823E+02  0.62287812511E+02 -0.13841706914E+03  0.17302543136E+03  0.47000000000E+01 0. -1.
        -11    1    4    4    0    0 -0.87296578518E+02 -0.93856974950E+01 -0.35847601536E+03  0.36907158862E+03  0.00000000000E+00 0.  1.
         12    1    4    4    0    0  0.11628706202E+02 -0.46482835195E+01 -0.42321377048E+01  0.13219089876E+02  0.00000000000E+00 0. -1.
         -5    1    5    5    0  502  0.28778602874E+02 -0.10909922515E+02 -0.32902197340E+02  0.45297670828E+02  0.47000000000E+01 0.  1.
         13    1    6    6    0    0  0.21847335343E+02  0.54045123605E+01  0.78933166031E+02  0.82078983395E+02  0.00000000000E+00 0. -1.
        -14    1    6    6    0    0  0.10796752292E+03 -0.42748421342E+02  0.80227196907E+02  0.14114112320E+03  0.00000000000E+00 0.  1.
</event>
<event>
12    1  0.8297444E-002  0.3755080E+03  0.7818608E-02  0.1052611E+00
         21   -1    0    0  501  502  0.00000000000E+00  0.00000000000E+00  0.37366718659E+03  0.37366718659E+03  0.00000000000E+00 0. -1.
         21   -1    0    0  502  503 -0.00000000000E+00 -0.00000000000E+00 -0.56354477876E+03  0.56354477876E+03  0.00000000000E+00 0.  1.
         -6    2    1    2    0  503 -0.18943049305E+03  0.27434346095E+03 -0.36433106217E+03  0.52320488106E+03  0.17279461347E+03 0.  0.
        -24    2    3    3    0    0 -0.11525472437E+03  0.13926090260E+03 -0.29169844476E+03  0.35277328382E+03  0.81754245252E+02 0.  0.
          6    2    1    2  501    0  0.18943049305E+03 -0.27434346095E+03  0.17445347000E+03  0.41400708429E+03  0.17268354405E+03 0.  0.
         24    2    5    5    0    0  0.59291097837E+02 -0.98597558928E+02  0.80065121582E+01  0.13914427481E+03  0.77846721608E+02 0.  0.
          5    1    5    5  501    0  0.13013939521E+03 -0.17574590202E+03  0.16644695784E+03  0.27486280948E+03  0.47000000000E+01 0. -1.
        -11    1    6    6    0    0  0.76319718074E+02 -0.90260201348E+02  0.14534610797E+02  0.11909180587E+03  0.00000000000E+00 0.  1.
         12    1    6    6    0    0 -0.17028620237E+02 -0.83373575799E+01 -0.65280986387E+01  0.20052468936E+02  0.00000000000E+00 0. -1.
         -5    1    3    3    0  503 -0.74175768674E+02  0.13508255835E+03 -0.72632617410E+02  0.17043159724E+03  0.47000000000E+01 0.  1.
         13    1    4    4    0    0 -0.72836824991E+02  0.40653278304E+02 -0.80817039967E+02  0.11614338578E+03  0.00000000000E+00 0. -1.
        -14    1    4    4    0    0 -0.42417899381E+02  0.98607624300E+02 -0.21088140479E+03  0.23662989804E+03  0.00000000000E+00 0.  1.
</event>
<event>
12    1  0.8297444E-002  0.1992850E+03  0.7818608E-02  0.1151550E+00
         21   -1    0    0  503  502  0.00000000000E+00  0.00000000000E+00  0.74476137553E+03  0.74476137553E+03  0.00000000000E+00 0.  1.
         21   -1    0    0  501  503 -0.00000000000E+00 -0.00000000000E+00 -0.60669565567E+02  0.60669565567E+02  0.00000000000E+00 0.  1.
          6    2    1    2  501    0 -0.77326606944E+02 -0.64145869395E+02  0.18421916477E+03  0.26729789100E+03  0.16558189867E+03 0.  0.
         24    2    3    3    0    0 -0.10856926451E+03 -0.69587078209E+02  0.10471374288E+03  0.18157209258E+03  0.73306276713E+02 0.  0.
         -6    2    1    2    0  502  0.77326606944E+02  0.64145869395E+02  0.49987264520E+03  0.53813305010E+03  0.17210584385E+03 0.  0.
        -24    2    5    5    0    0  0.95029863811E+02 -0.14979396642E+01  0.38582185410E+03  0.40527151344E+03  0.79709332386E+02 0.  0.
          5    1    3    3  501    0  0.31242657571E+02  0.54412088142E+01  0.79505421892E+02  0.85725798426E+02  0.47000000000E+01 0. -1.
        -13    1    4    4    0    0 -0.26838358600E+02 -0.54173406327E+02  0.67014868639E+02  0.90255460024E+02  0.00000000000E+00 0.  1.
         14    1    4    4    0    0 -0.81730905914E+02 -0.15413671881E+02  0.37698874237E+02  0.91316632555E+02  0.00000000000E+00 0. -1.
         -5    1    5    5    0  502 -0.17703256867E+02  0.65643809059E+02  0.11405079110E+03  0.13286153665E+03  0.47000000000E+01 0.  1.
         13    1    6    6    0    0 -0.88884170824E+01 -0.27361209667E+01  0.50720211352E+01  0.10593191897E+02  0.00000000000E+00 0. -1.
        -14    1    6    6    0    0  0.10391828089E+03  0.12381813025E+01  0.38074983296E+03  0.39467832155E+03  0.00000000000E+00 0.  1.
</event>
<event>
12    1  0.8297444E-002  0.1730324E+03  0.7818608E-02  0.1174892E+00
         21   -1    0    0  503  502  0.00000000000E+00  0.00000000000E+00  0.17106598594E+03  0.17106598594E+03  0.00000000000E+00 0.  1.
         21   -1    0    0  501  503 -0.00000000000E+00 -0.00000000000E+00 -0.22399627239E+03  0.22399627239E+03  0.00000000000E+00 0.  1.
          6    2    1    2  501    0 -0.15352599771E+02 -0.12268203266E+02  0.66572513063E+02  0.18477400920E+03  0.17124054382E+03 0.  0.
         24    2    3    3    0    0  0.25404287448E+02 -0.29238763804E+02  0.97561378696E+02  0.13063046319E+03  0.77754820891E+02 0.  0.
         -6    2    1    2    0  502  0.15352599771E+02  0.12268203266E+02 -0.11950279951E+03  0.21028824912E+03  0.17191281947E+03 0.  0.
        -24    2    5    5    0    0 -0.28413003922E+02  0.40720449395E+02 -0.11474475056E+03  0.15766042943E+03  0.96046860623E+02 0.  0.
          5    1    3    3  501    0 -0.40756887219E+02  0.16970560538E+02 -0.30988865633E+02  0.54143546005E+02  0.47000000000E+01 0. -1.
        -13    1    4    4    0    0  0.31128221425E+02  0.18518805397E+02  0.57863223276E+02  0.68264668243E+02  0.00000000000E+00 0.  1.
         14    1    4    4    0    0 -0.57239339772E+01 -0.47757569201E+02  0.39698155420E+02  0.62365794952E+02  0.00000000000E+00 0. -1.
         -5    1    5    5    0  502  0.43765603693E+02 -0.28452246128E+02 -0.47580489569E+01  0.52627819699E+02  0.47000000000E+01 0.  1.
         11    1    6    6    0    0 -0.26701574189E+02  0.22755885263E+02  0.59847986181E+01  0.35589636030E+02  0.00000000000E+00 0. -1.
        -12    1    6    6    0    0 -0.17114297328E+01  0.17964564132E+02 -0.12072954918E+03  0.12207079340E+03  0.00000000000E+00 0.  1.
</event>
<event>
12    1  0.8297444E-002  0.1903606E+03  0.7818608E-02  0.1159626E+00
         21   -1    0    0  501  502  0.00000000000E+00  0.00000000000E+00  0.29196211713E+03  0.29196211713E+03  0.00000000000E+00 0.  1.
         21   -1    0    0  502  503 -0.00000000000E+00 -0.00000000000E+00 -0.14561512668E+03  0.14561512668E+03  0.00000000000E+00 0.  1.
         -6    2    1    2    0  503  0.72639968589E+02  0.15210333307E+02 -0.19781012703E+02  0.18491999694E+03  0.16821473636E+03 0.  0.
        -24    2    3    3    0    0  0.54958665302E+02  0.17211602465E+02 -0.77524782001E+02  0.12431416837E+03  0.78276602393E+02 0.  0.
          6    2    1    2  501    0 -0.72639968589E+02 -0.15210333307E+02  0.16612800316E+03  0.25265724687E+03  0.17529760890E+03 0.  0.
         24    2    5    5    0    0 -0.11268528268E+03 -0.24467891199E+02  0.93629483141E+02  0.16918596461E+03  0.80998517729E+02 0.  0.
          5    1    5    5  501    0  0.40045314088E+02  0.92575578925E+01  0.72498520015E+02  0.83471282265E+02  0.47000000000E+01 0. -1.
        -13    1    6    6    0    0 -0.86403206316E+02  0.76226687561E+01  0.93729839310E+02  0.12770631119E+03  0.00000000000E+00 0.  1.
         14    1    6    6    0    0 -0.26282076361E+02 -0.32090559955E+02 -0.10035616860E+00  0.41479653415E+02  0.00000000000E+00 0. -1.
         -5    1    3    3    0  503  0.17681303287E+02 -0.20012691581E+01  0.57743769298E+02  0.60605828572E+02  0.47000000000E+01 0.  1.
         11    1    4    4    0    0 -0.21302153869E+01 -0.13993813045E+02  0.84587433705E+01  0.16489844164E+02  0.00000000000E+00 0. -1.
        -12    1    4    4    0    0  0.57088880689E+02  0.31205415510E+02 -0.85983525371E+02  0.10782432421E+03  0.00000000000E+00 0.  1.
</event>
<event>
12    1  0.8297444E-002  0.1910517E+03  0.7818608E-02  0.1159515E+00
         21   -1    0    0  503  502  0.00000000000E+00  0.00000000000E+00  0.15808135751E+03  0.15808135751E+03  0.00000000000E+00 0. -1.
         21   -1    0    0  501  503 -0.00000000000E+00 -0.00000000000E+00 -0.25833683864E+03  0.25833683864E+03  0.00000000000E+00 0. -1.
          6    2    1    2  501    0  0.48084283265E+02  0.33276105525E+02 -0.12879946273E+03  0.22324598426E+03  0.17271383962E+03 0.  0.
         24    2    3    3    0    0  0.61723416466E+02 -0.35384895851E+02 -0.10254909203E+03  0.14833583124E+03  0.80158165893E+02 0.  0.
         -6    2    1    2    0  502 -0.48084283265E+02 -0.33276105525E+02  0.28543981595E+02  0.19317221188E+03  0.18188278385E+03 0.  0.
        -24    2    5    5    0    0 -0.65974096974E+02 -0.87655021426E+02  0.19913894359E+02  0.13508882066E+03  0.76265601860E+02 0.  0.
          5    1    3    3  501    0 -0.13639133201E+02  0.68661001376E+02 -0.26250370700E+02  0.74910153026E+02  0.47000000000E+01 0. -1.
        -11    1    4    4    0    0  0.21472032862E+02 -0.42642816723E+02 -0.12377731209E+02  0.49322066494E+02  0.00000000000E+00 0.  1.
         12    1    4    4    0    0  0.40251383603E+02  0.72579208726E+01 -0.90171360817E+02  0.99013764745E+02  0.00000000000E+00 0. -1.
         -5    1    5    5    0  502  0.17889813710E+02  0.54378915900E+02  0.86300872359E+01  0.58083391213E+02  0.47000000000E+01 0.  1.
         11    1    6    6    0    0 -0.69093608113E+02 -0.44401986073E+02  0.34856385308E+02  0.89221245485E+02  0.00000000000E+00 0. -1.
        -12    1    6    6    0    0  0.31195111383E+01 -0.43253035353E+02 -0.14942490949E+02  0.45867575179E+02  0.00000000000E+00 0.  1.
</event>
<event>
12    1  0.8297444E-002  0.1781299E+03  0.7818608E-02  0.1171214E+00
         21   -1    0    0  501  502  0.00000000000E+00  0.00000000000E+00  0.54122316111E+02  0.54122316111E+02  0.00000000000E+00 0. -1.
         21   -1    0    0  502  503 -0.00000000000E+00 -0.00000000000E+00 -0.61573694408E+03  0.61573694408E+03  0.00000000000E+00 0. -1.
         -6    2    1    2    0  503  0.72716897238E+01 -0.46100414626E+02 -0.37173407240E+03  0.40950395056E+03  0.16531527224E+03 0.  0.
        -24    2    3    3    0    0 -0.43633082555E+02 -0.43283691478E+02 -0.14566408617E+03  0.17770887199E+03  0.81148588066E+02 0.  0.
          6    2    1    2  501    0 -0.72716897238E+01  0.46100414626E+02 -0.18988055556E+03  0.26035530963E+03  0.17190734764E+03 0.  0.
         24    2    5    5    0    0 -0.53380412720E+02 -0.36347050275E+01 -0.65189549046E+02  0.11833582657E+03  0.83012113586E+02 0.  0.
          5    1    5    5  501    0  0.46108722996E+02  0.49735119653E+02 -0.12469100652E+03  0.14201948306E+03  0.47000000000E+01 0. -1.
        -11    1    6    6    0    0  0.15066651871E+02  0.18589380938E+02 -0.29568914015E+02  0.38038004131E+02  0.00000000000E+00 0.  1.
         12    1    6    6    0    0 -0.68447064591E+02 -0.22224085965E+02 -0.35620635032E+02  0.80297822437E+02  0.00000000000E+00 0. -1.
         -5    1    3    3    0  503  0.50904772279E+02 -0.28167231482E+01 -0.22606998624E+03  0.23179507857E+03  0.47000000000E+01 0.  1.
         13    1    4    4    0    0 -0.30617578343E+02 -0.54414068471E+02 -0.14780358398E+03  0.16045007445E+03  0.00000000000E+00 0. -1.
        -14    1    4    4    0    0 -0.13015504212E+02  0.11130376994E+02  0.21394978154E+01  0.17258797549E+02  0.00000000000E+00 0.  1.
</event>
<event>
12    1  0.8297444E-002  0.2210138E+03  0.7818608E-02  0.1133574E+00
         21   -1    0    0  503  502  0.00000000000E+00  0.00000000000E+00  0.12347632135E+03  0.12347632135E+03  0.00000000000E+00 0.  1.
         21   -1    0    0  501  503 -0.00000000000E+00 -0.00000000000E+00 -0.55909027023E+03  0.55909027023E+03  0.00000000000E+00 0.  1.
          6    2    1    2  501    0 -0.76625734916E+02  0.11151892196E+03 -0.40557041118E+03  0.46188143189E+03  0.17475447203E+03 0.  0.
         24    2    3    3    0    0 -0.10035845681E+03  0.12221709365E+03 -0.26086917651E+03  0.31478204277E+03  0.77628405639E+02 0.  0.
         -6    2    1    2    0  502  0.76625734916E+02 -0.11151892196E+03 -0.30043537692E+02  0.22068515969E+03  0.17173046422E+03 0.  0.
        -24    2    5    5    0    0 -0.61870823642E+01 -0.74875916856E+02  0.26314213313E+02  0.11391925395E+03  0.81489113911E+02 0.  0.
          5    1    3    3  501    0  0.23732721895E+02 -0.10698171689E+02 -0.14470123467E+03  0.14709938913E+03  0.47000000000E+01 0. -1.
        -11    1    4    4    0    0 -0.90536702100E+02  0.62095505956E+02 -0.12812453342E+03  0.16872653126E+03  0.00000000000E+00 0.  1.
         12    1    4    4    0    0 -0.98217547102E+01  0.60121587694E+02 -0.13274464309E+03  0.14605551151E+03  0.00000000000E+00 0. -1.
         -5    1    5    5    0  502  0.82812817280E+02 -0.36643005106E+02 -0.56357751005E+02  0.10676590573E+03  0.47000000000E+01 0.  1.
         13    1    6    6    0    0  0.25956025380E+02  0.34228565068E+01  0.53466736965E+01  0.26721117488E+02  0.00000000000E+00 0. -1.
        -14    1    6    6    0    0 -0.32143107744E+02 -0.78298773362E+02  0.20967539617E+02  0.87198136466E+02  0.00000000000E+00 0.  1.
</event>
<event>
12    1  0.8297444E-002  0.1913594E+03  0.7818608E-02  0.1158298E+00
         21   -1    0    0  501  502  0.00000000000E+00  0.00000000000E+00  0.93810456648E+03  0.93810456648E+03  0.00000000000E+00 0. -1.
         21   -1    0    0  502  503 -0.00000000000E+00 -0.00000000000E+00 -0.55536780475E+02  0.55536780475E+02  0.00000000000E+00 0. -1.
         -6    2    1    2    0  503 -0.75652451455E+02  0.17800464534E+02  0.16655643439E+03  0.25369165410E+03  0.17486640493E+03 0.  0.
        -24    2    3    3    0    0  0.14591154222E+02  0.37522907641E+02  0.45080432032E+02  0.10101096679E+03  0.80932686104E+02 0.  0.
          6    2    1    2  501    0  0.75652451455E+02 -0.17800464534E+02  0.71601135161E+03  0.73994969286E+03  0.16974434415E+03 0.  0.
         24    2    5    5    0    0  0.34717603210E+02  0.35806236493E+02  0.21695939624E+03  0.23633844958E+03  0.79354171834E+02 0.  0.
          5    1    5    5  501    0  0.40934848245E+02 -0.53606701027E+02  0.49905195538E+03  0.50361124328E+03  0.47000000000E+01 0. -1.
        -13    1    6    6    0    0  0.57447976898E+02  0.40651822316E+02  0.15806945007E+03  0.17302829755E+03  0.00000000000E+00 0.  1.
         14    1    6    6    0    0 -0.22730373688E+02 -0.48455858228E+01  0.58889946166E+02  0.63310152025E+02  0.00000000000E+00 0. -1.
         -5    1    3    3    0  503 -0.90243605677E+02 -0.19722443107E+02  0.12147600236E+03  0.15268068731E+03  0.47000000000E+01 0.  1.
         11    1    4    4    0    0  0.12370816127E+02  0.55243877764E+02  0.46392833293E+01  0.56801813984E+02  0.00000000000E+00 0. -1.
        -12    1    4    4    0    0  0.22203380951E+01 -0.17720970123E+02  0.40441148703E+02  0.44209152805E+02  0.00000000000E+00 0.  1.
</event>
<event>
12    1  0.8297444E-002  0.1865603E+03  0.7818608E-02  0.1162609E+00
         21   -1    0    0  503  502  0.00000000000E+00  0.00000000000E+00  0.26097361938E+02  0.26097361938E+02  0.00000000000E+00 0. -1.
         21   -1    0    0  501  503 -0.00000000000E+00 -0.00000000000E+00 -0.15232687085E+04  0.15232687085E+04  0.00000000000E+00 0.  1.
          6    2    1    2  501    0  0.68906201981E+02 -0.20836551283E+02 -0.44653538416E+03  0.48229500083E+03  0.16742876687E+03 0.  0.
         24    2    3    3    0    0  0.59997454460E+02 -0.24401178994E+02 -0.12920193265E+03  0.16478172268E+03  0.79150266272E+02 0.  0.
         -6    2    1    2    0  502 -0.68906201981E+02  0.20836551283E+02 -0.10506359624E+04  0.10670710696E+04  0.17211192743E+03 0.  0.
        -24    2    5    5    0    0 -0.41215542783E+02  0.11616612376E+02 -0.26552201217E+03  0.28140079225E+03  0.82769561320E+02 0.  0.
          5    1    3    3  501    0  0.89087475206E+01  0.35646277111E+01 -0.31733345151E+03  0.31751327815E+03  0.47000000000E+01 0. -1.
        -13    1    4    4    0    0  0.34905047831E+02  0.23909497038E+02 -0.83881372386E+02  0.93947384455E+02  0.00000000000E+00 0.  1.
         14    1    4    4    0    0  0.25092406630E+02 -0.48310676032E+02 -0.45320560265E+02  0.70834338226E+02  0.00000000000E+00 0. -1.
         -5    1    5    5    0  502 -0.27690659198E+02  0.92199389072E+01 -0.78511395024E+03  0.78567027737E+03  0.47000000000E+01 0.  1.
         13    1    6    6    0    0 -0.19290135458E+02  0.38787185045E+02 -0.66673186113E+02  0.79510180456E+02  0.00000000000E+00 0. -1.
        -14    1    6    6    0    0 -0.21925407324E+02 -0.27170572669E+02 -0.19884882606E+03  0.20189061179E+03  0.00000000000E+00 0.  1.
</event>
<event>
12    1  0.8297444E-002  0.2309304E+03  0.7818608E-02  0.1126588E+00
         21   -1    0    0  503  502  0.00000000000E+00  0.00000000000E+00  0.66608948144E+02  0.66608948144E+02  0.00000000000E+00 0.  1.
         21   -1    0    0  501  503 -0.00000000000E+00 -0.00000000000E+00 -0.99584549904E+03  0.99584549904E+03  0.00000000000E+00 0. -1.
          6    2    1    2  501    0 -0.11054759636E+03 -0.10329642663E+03 -0.70406740197E+03  0.73991764974E+03  0.16993027708E+03 0.  0.
         24    2    3    3    0    0 -0.61231648279E+02 -0.72818310021E+02 -0.18485054118E+03  0.21745308936E+03  0.63751882108E+02 0.  0.
         -6    2    1    2    0  502  0.11054759636E+03  0.10329642663E+03 -0.22516914893E+03  0.32253679744E+03  0.17446465906E+03 0.  0.
        -24    2    5    5    0    0  0.44369571215E+02  0.49362080405E+02 -0.21196668514E+03  0.23602182900E+03  0.79819510916E+02 0.  0.
          5    1    3    3  501    0 -0.49315948082E+02 -0.30478116610E+02 -0.51921686079E+03  0.52246456038E+03  0.47000000000E+01 0. -1.
        -11    1    4    4    0    0 -0.60633513295E+02 -0.23266725210E+02 -0.10254002260E+03  0.12137635549E+03  0.00000000000E+00 0.  1.
         12    1    4    4    0    0 -0.59813498323E+00 -0.49551584811E+02 -0.82310518580E+02  0.96076733873E+02  0.00000000000E+00 0. -1.
         -5    1    5    5    0  502  0.66178025145E+02  0.53934346226E+02 -0.13202463788E+02  0.86514968445E+02  0.47000000000E+01 0.  1.
         11    1    6    6    0    0  0.65534747042E+02  0.22059505830E+02 -0.14653301348E+03  0.16202885208E+03  0.00000000000E+00 0. -1.
        -12    1    6    6    0    0 -0.21165175826E+02  0.27302574575E+02 -0.65433671657E+02  0.73992976915E+02  0.00000000000E+00 0.  1.
</event>
<event>
12    1  0.8297444E-002  0.2215305E+03  0.7818608E-02  0.1134035E+00
         21   -1    0    0  503  502  0.00000000000E+00  0.00000000000E+00  0.94496371185E+03  0.94496371185E+03  0.00000000000E+00 0. -1.
         21   -1    0    0  501  503 -0.00000000000E+00 -0.00000000000E+00 -0.56132075555E+02  0.56132075555E+02  0.00000000000E+00 0. -1.
          6    2    1    2  501    0  0.80922030840E+02  0.99320338471E+02  0.27736430541E+03  0.35073583866E+03  0.17225494448E+03 0.  0.
         24    2    3    3    0    0  0.33250950997E+02  0.11293117570E+02  0.44898931303E+02  0.97588522596E+02  0.79211397310E+02 0.  0.
         -6    2    1    2    0  502 -0.80922030840E+02 -0.99320338471E+02  0.61146733088E+03  0.65035994874E+03  0.18072869578E+03 0.  0.
        -24    2    5    5    0    0  0.71932282585E+01 -0.29514572558E+02  0.42840152276E+03  0.43548248611E+03  0.72071343008E+02 0.  0.
          5    1    3    3  501    0  0.47671079843E+02  0.88027220901E+02  0.23246537411E+03  0.25314731607E+03  0.47000000000E+01 0. -1.
        -13    1    4    4    0    0 -0.14549641406E+02 -0.38399476363E+01  0.45000250472E+02  0.47449550108E+02  0.00000000000E+00 0.  1.
         14    1    4    4    0    0  0.47800592403E+02  0.15133065206E+02 -0.10131916948E+00  0.50138972488E+02  0.00000000000E+00 0. -1.
         -5    1    5    5    0  502 -0.88115259099E+02 -0.69805765913E+02  0.18306580812E+03  0.21487746263E+03  0.47000000000E+01 0.  1.
         13    1    6    6    0    0 -0.15997663434E+02 -0.20086083170E+02  0.38110557812E+03  0.38196968158E+03  0.00000000000E+00 0. -1.
        -14    1    6    6    0    0  0.23190891693E+02 -0.94284893876E+01  0.47295944638E+02  0.53512804532E+02  0.00000000000E+00 0.  1.
</event>
<event>
12    1  0.8297444E-002  0.1892507E+03  0.7818608E-02  0.1159230E+00
         21   -1    0    0  503  502  0.00000000000E+00  0.00000000000E+00  0.33273675616E+03  0.33273675616E+03  0.00000000000E+00 0.  1.
         21   -1    0    0  501  503 -0.00000000000E+00 -0.00000000000E+00 -0.11086908288E+03  0.11086908288E+03  0.00000000000E+00 0.  1.
          6    2    1    2  501    0  0.77675102599E+02  0.13659553864E+02  0.71880843963E+02  0.20244182936E+03  0.17203439647E+03 0.  0.
         24    2    3    3    0    0  0.35649856069E+02  0.49101589186E+02  0.99532485726E+02  0.14072503662E+03  0.78834902920E+02 0.  0.
         -6    2    1    2    0  502 -0.77675102599E+02 -0.13659553864E+02  0.14998682931E+03  0.24116400968E+03  0.17159261529E+03 0.  0.
        -24    2    5    5    0    0 -0.93810706470E+02  0.21074089651E+02  0.15841430255E+03  0.20166849083E+03  0.79564584063E+02 0.  0.
          5    1    3    3  501    0  0.42025246530E+02 -0.35442035321E+02 -0.27651641763E+02  0.61716792738E+02  0.47000000000E+01 0. -1.
        -11    1    4    4    0    0  0.41594703040E+02  0.48192342778E+01  0.83220046659E+02  0.93160724052E+02  0.00000000000E+00 0.  1.
         12    1    4    4    0    0 -0.59448469707E+01  0.44282354908E+02  0.16312439067E+02  0.47564312567E+02  0.00000000000E+00 0. -1.
         -5    1    5    5    0  502  0.16135603871E+02 -0.34733643516E+02 -0.84274732401E+01  0.39495518852E+02  0.47000000000E+01 0.  1.
         11    1    6    6    0    0 -0.54246331245E+02 -0.20799700817E+02  0.11728122342E+03  0.13088230351E+03  0.00000000000E+00 0. -1.
        -12    1    6    6    0    0 -0.39564375226E+02  0.41873790468E+02  0.41133079136E+02  0.70786187313E+02  0.00000000000E+00 0.  1.
</event>
<event>
12    1  0.8297444E-002  0.1869671E+03  0.7818608E-02  0.1161232E+00
         21   -1    0    0  501  502  0.00000000000E+00  0.00000000000E+00  0.18556607837E+03  0.18556607837E+03  0.00000000000E+00 0.  1.
         21   -1    0    0  502  503 -0.00000000000E+00 -0.00000000000E+00 -0.18853077726E+03  0.18853077726E+03  0.00000000000E+00 0.  1.
         -6    2    1    2    0  503 -0.44174433873E+01 -0.73164388413E+02  0.43000112823E+01  0.18698862405E+03  0.17197009592E+03 0.  0.
        -24    2    3    3    0    0  0.19968631311E+02 -0.34432607766E+02  0.65148288062E+02  0.11070340754E+03  0.80166041996E+02 0.  0.
          6    2    1    2  501    0  0.44174433873E+01  0.73164388413E+02 -0.72647101793E+01  0.18710823158E+03  0.17200050225E+03 0.  0.
         24    2    5    5    0    0  0.14254510273E+02  0.87807913643E+02  0.48055965681E+02  0.12885303530E+03  0.79876830848E+02 0.  0.
          5    1    5    5  501    0 -0.98370668857E+01 -0.14643525231E+02 -0.55320675861E+02  0.58255196281E+02  0.47000000000E+01 0. -1.
        -13    1    6    6    0    0  0.37070896472E+02  0.19841754577E+02 -0.86996536105E+00  0.42055955936E+02  0.00000000000E+00 0.  1.
         14    1    6    6    0    0 -0.22816386199E+02  0.67966159066E+02  0.48925931042E+02  0.86797079362E+02  0.00000000000E+00 0. -1.
         -5    1    3    3    0  503 -0.24386074699E+02 -0.38731780647E+02 -0.60848276780E+02  0.76285216513E+02  0.47000000000E+01 0.  1.
         11    1    4    4    0    0  0.50872512207E+02 -0.15162166755E+02  0.38747833996E+02  0.65721369723E+02  0.00000000000E+00 0. -1.
        -12    1    4    4    0    0 -0.30903880895E+02 -0.19270441011E+02  0.26400454067E+02  0.44982037816E+02  0.00000000000E+00 0.  1.
</event>
<event>
12    1  0.8297444E-002  0.1863716E+03  0.7818608E-02  0.1162341E+00
         21   -1    0    0  503  502  0.00000000000E+00  0.00000000000E+00  0.72065139115E+02  0.72065139115E+02  0.00000000000E+00 0.  1.
         21   -1    0    0  501  503 -0.00000000000E+00 -0.00000000000E+00 -0.88379981403E+03  0.88379981403E+03  0.00000000000E+00 0.  1.
          6    2    1    2  501    0 -0.59294661208E+02  0.25587177999E+02 -0.72918954896E+03  0.75203149087E+03  0.17223067212E+03 0.  0.
         24    2    3    3    0    0 -0.93146830009E+01  0.18056772083E+02 -0.15625652779E+03  0.17685409042E+03  0.80302281940E+02 0.  0.
         -6    2    1    2    0  502  0.59294661208E+02 -0.25587177999E+02 -0.82545125956E+02  0.20383346228E+03  0.17482511833E+03 0.  0.
        -24    2    5    5    0    0  0.10235585057E+03 -0.11599931649E+02 -0.90034704205E+02  0.15770220528E+03  0.78437612340E+02 0.  0.
          5    1    3    3  501    0 -0.49979978208E+02  0.75304059161E+01 -0.57293302117E+03  0.57517740045E+03  0.47000000000E+01 0. -1.
        -13    1    4    4    0    0  0.12227831929E+02  0.45365245078E+02 -0.10347418440E+03  0.11364168325E+03  0.00000000000E+00 0.  1.
         14    1    4    4    0    0 -0.21542514930E+02 -0.27308472995E+02 -0.52782343390E+02  0.63212407173E+02  0.00000000000E+00 0. -1.
         -5    1    5    5    0  502 -0.43061189361E+02 -0.13987246350E+02  0.74895782493E+01  0.46131256996E+02  0.47000000000E+01 0.  1.
         13    1    6    6    0    0  0.67208276391E+02 -0.20579507599E+02 -0.97962073345E+02  0.12056963284E+03  0.00000000000E+00 0. -1.
        -14    1    6    6    0    0  0.35147574179E+02  0.89795759502E+01  0.79273691401E+01  0.37132572445E+02  0.00000000000E+00 0.  1.
</event>
<event>
12    1  0.8297444E-002  0.1753808E+03  0.7818608E-02  0.1172971E+00
         21   -1    0    0  503  502  0.00000000000E+00  0.00000000000E+00  0.27725439633E+03  0.27725439633E+03  0.00000000000E+00 0.  1.
         21   -1    0    0  501  503 -0.00000000000E+00 -0.00000000000E+00 -0.15489941978E+03  0.15489941978E+03  0.00000000000E+00 0.  1.
          6    2    1    2  501    0  0.96538362708E+01  0.11050663944E+02 -0.55639419493E+02  0.18399498247E+03  0.17476582859E+03 0.  0.
         24    2    3    3    0    0 -0.31154788668E+02 -0.30582148172E+02 -0.79678753829E+02  0.12076038348E+03  0.79551730105E+02 0.  0.
         -6    2    1    2    0  502 -0.96538362708E+01 -0.11050663944E+02  0.17799439605E+03  0.24815883364E+03  0.17229477056E+03 0.  0.
        -24    2    5    5    0    0  0.53508236646E+02 -0.28289506066E+02  0.13921907825E+03  0.17192078275E+03  0.80693099160E+02 0.  0.
          5    1    3    3  501    0  0.40808624939E+02  0.41632812116E+02  0.24039334336E+02  0.63234598990E+02  0.47000000000E+01 0. -1.
        -13    1    4    4    0    0  0.19187376089E+01  0.16453012476E+02 -0.56306501781E+02  0.58692463881E+02  0.00000000000E+00 0.  1.
         14    1    4    4    0    0 -0.33073526277E+02 -0.47035160648E+02 -0.23372252048E+02  0.62067919600E+02  0.00000000000E+00 0. -1.
         -5    1    5    5    0  502 -0.63162072917E+02  0.17238842122E+02  0.38775317799E+02  0.76238050889E+02  0.47000000000E+01 0.  1.
         11    1    6    6    0    0  0.11678060473E+02 -0.11719148791E+02 -0.77132974341E+01  0.18254054402E+02  0.00000000000E+00 0. -1.
        -12    1    6    6    0    0  0.41830176173E+02 -0.16570357275E+02  0.14693237568E+03  0.15366672835E+03  0.00000000000E+00 0.  1.
</event>
<event>
12    1  0.8297444E-002  0.1744148E+03  0.7818608E-02  0.1173631E+00
         21   -1    0    0  503  502  0.00000000000E+00  0.00000000000E+00  0.93363639556E+02  0.93363639556E+02  0.00000000000E+00 0.  1.
         21   -1    0    0  501  503 -0.00000000000E+00 -0.00000000000E+00 -0.63791964566E+03  0.63791964566E+03  0.00000000000E+00 0.  1.
          6    2    1    2  501    0 -0.10407883681E+02  0.22299551185E+02 -0.16082140621E+02  0.17515463878E+03  0.17266996906E+03 0.  0.
         24    2    3    3    0    0  0.39032722434E+02  0.45276037845E+02 -0.48667861385E+02  0.11146624369E+03  0.80515152151E+02 0.  0.
         -6    2    1    2    0  502  0.10407883681E+02 -0.22299551185E+02 -0.52847386549E+03  0.55612864644E+03  0.17143176736E+03 0.  0.
        -24    2    5    5    0    0  0.25535650296E+02 -0.47556067121E+02 -0.51438890955E+03  0.52315567412E+03  0.78627349782E+02 0.  0.
          5    1    3    3  501    0 -0.49440606116E+02 -0.22976486660E+02  0.32585720765E+02  0.63688395097E+02  0.47000000000E+01 0. -1.
        -11    1    4    4    0    0 -0.22602623667E+02 -0.36192184051E+00 -0.17890977628E+02  0.28828747190E+02  0.00000000000E+00 0.  1.
         12    1    4    4    0    0  0.61635346101E+02  0.45637959685E+02 -0.30776883757E+02  0.82637496496E+02  0.00000000000E+00 0. -1.
         -5    1    5    5    0  502 -0.15127766615E+02  0.25256515936E+02 -0.14084955935E+02  0.32972972321E+02  0.47000000000E+01 0.  1.
         11    1    6    6    0    0 -0.76817380631E+01  0.11420419176E+02 -0.20762939580E+02  0.24910534595E+02  0.00000000000E+00 0. -1.
        -12    1    6    6    0    0  0.33217388359E+02 -0.58976486297E+02 -0.49362596997E+03  0.49824513952E+03  0.00000000000E+00 0.  1.
</event>
<event>
12    1  0.8297444E-002  0.1819195E+03  0.7818608E-02  0.1166357E+00
         21   -1    0    0  501  502  0.00000000000E+00  0.00000000000E+00  0.13656903020E+02  0.13656903020E+02  0.00000000000E+00 0. -1.
         21   -1    0    0  502  503 -0.00000000000E+00 -0.00000000000E+00 -0.25339454236E+04  0.25339454236E+04  0.00000000000E+00 0. -1.
         -6    2    1    2    0  503 -0.11977773649E+02 -0.56962831448E+02 -0.15571757625E+04  0.15677662594E+04  0.17235561402E+03 0.  0.
        -24    2    3    3    0    0  0.24583827553E+01 -0.10136147864E+03 -0.13142050805E+04  0.13203061923E+04  0.76113434970E+02 0.  0.
          6    2    1    2  501    0  0.11977773649E+02  0.56962831448E+02 -0.96311275814E+03  0.97983606724E+03  0.17059983162E+03 0.  0.
         24    2    5    5    0    0 -0.27647036256E+02  0.51645770259E+02 -0.89929256520E+03  0.90438075778E+03  0.75801009312E+02 0.  0.
          5    1    5    5  501    0  0.39624809905E+02  0.53170611891E+01 -0.63820192934E+02  0.75455309461E+02  0.47000000000E+01 0. -1.
        -13    1    6    6    0    0 -0.24128443636E+02  0.34870125683E+02 -0.18165778258E+03  0.18654130221E+03  0.00000000000E+00 0.  1.
         14    1    6    6    0    0 -0.35185926197E+01  0.16775644576E+02 -0.71763478262E+03  0.71783945557E+03  0.00000000000E+00 0. -1.
         -5    1    3    3    0  503 -0.14436156404E+02  0.44398647195E+02 -0.24297068198E+03  0.24746006705E+03  0.47000000000E+01 0.  1.
         11    1    4    4    0    0 -0.34117100283E+02 -0.43543808540E+02 -0.73396939192E+03  0.73605102274E+03  0.00000000000E+00 0. -1.
        -12    1    4    4    0    0  0.36575483038E+02 -0.57817670103E+02 -0.58023568856E+03  0.58425516960E+03  0.00000000000E+00 0.  1.
</event>
<event>
12    1  0.8297444E-002  0.3989102E+03  0.7818608E-02  0.1044304E+00
         21   -1    0    0  501  502  0.00000000000E+00  0.00000000000E+00  0.49363708675E+03  0.49363708675E+03  0.00000000000E+00 0. -1.
         21   -1    0    0  502  503 -0.00000000000E+00 -0.00000000000E+00 -0.66586068043E+03  0.66586068043E+03  0.00000000000E+00 0.  1.
         -6    2    1    2    0  503  0.12605310305E+03  0.33528008966E+03 -0.50324803838E+03  0.64112868166E+03  0.17171276889E+03 0.  0.
        -24    2    3    3    0    0  0.17472535003E+02  0.21424492401E+03 -0.23910130016E+03  0.33091127338E+03  0.78272997725E+02 0.  0.
          6    2    1    2  501    0 -0.12605310305E+03 -0.33528008966E+03  0.33102444471E+03  0.51836908552E+03  0.17557677102E+03 0.  0.
         24    2    5    5    0    0 -0.29837223768E+02 -0.45193874582E+02  0.66184136819E+02  0.11393122097E+03  0.75281052879E+02 0.  0.
          5    1    5    5  501    0 -0.96215879285E+02 -0.29008621508E+03  0.26484030789E+03  0.40443786456E+03  0.47000000000E+01 0. -1.
        -11    1    6    6    0    0 -0.25465069055E+02 -0.34951932715E+02 -0.34782079999E+01  0.43384389743E+02  0.00000000000E+00 0.  1.
         12    1    6    6    0    0 -0.43721547134E+01 -0.10241941867E+02  0.69662344818E+02  0.70546831223E+02  0.00000000000E+00 0. -1.
         -5    1    3    3    0  503  0.10858056805E+03  0.12103516565E+03 -0.26414673822E+03  0.31021740828E+03  0.47000000000E+01 0.  1.
         11    1    4    4    0    0  0.24599069990E+02  0.83571651221E+02 -0.48499753857E+02  0.99707378144E+02  0.00000000000E+00 0. -1.
        -12    1    4    4    0    0 -0.71265349872E+01  0.13067327279E+03 -0.19060154630E+03  0.23120389524E+03  0.00000000000E+00 0.  1.
</event>
<event>
12    1  0.8297444E-002  0.1765686E+03  0.7818608E-02  0.1171243E+00
         21   -1    0    0  501  502  0.00000000000E+00  0.00000000000E+00  0.73531143211E+02  0.73531143211E+02  0.00000000000E+00 0. -1.
         21   -1    0    0  502  503 -0.00000000000E+00 -0.00000000000E+00 -0.89409370532E+03  0.89409370532E+03  0.00000000000E+00 0. -1.
         -6    2    1    2    0  503  0.89805591119E+01 -0.35238546149E+02 -0.76120609754E+03  0.78134640853E+03  0.17246762484E+03 0.  0.
        -24    2    3    3    0    0 -0.31540957741E+02 -0.74945713138E+02 -0.39805092289E+03  0.41375638784E+03  0.78346150711E+02 0.  0.
          6    2    1    2  501    0 -0.89805591119E+01  0.35238546149E+02 -0.59356464570E+02  0.18627844000E+03  0.17278327971E+03 0.  0.
         24    2    5    5    0    0 -0.55044468737E+02  0.11274638890E+02  0.36154821772E+01  0.10452448781E+03  0.88064100634E+02 0.  0.
          5    1    5    5  501    0  0.46063909626E+02  0.23963907259E+02 -0.62971946747E+02  0.81753952187E+02  0.47000000000E+01 0. -1.
        -11    1    6    6    0    0 -0.30809892918E+02 -0.12618986952E+02 -0.38159064287E+02  0.50641904788E+02  0.00000000000E+00 0.  1.
         12    1    6    6    0    0 -0.24234575820E+02  0.23893625842E+02  0.41774546465E+02  0.53882583024E+02  0.00000000000E+00 0. -1.
         -5    1    3    3    0  503  0.40521516853E+02  0.39707166989E+02 -0.36315517465E+03  0.36759002069E+03  0.47000000000E+01 0.  1.
         13    1    4    4    0    0  0.20917534343E+01 -0.75120584861E+02 -0.21795530625E+03  0.23054716052E+03  0.00000000000E+00 0. -1.
        -14    1    4    4    0    0 -0.33632711175E+02  0.17487172344E+00 -0.18009561664E+03  0.18320922732E+03  0.00000000000E+00 0.  1.
</event>
<event>
12    1  0.8297444E-002  0.1898792E+03  0.7818608E-02  0.1158978E+00
         21   -1    0    0  503  502  0.00000000000E+00  0.00000000000E+00  0.11232163812E+03  0.11232163812E+03  0.00000000000E+00 0. -1.
         21   -1    0    0  501  503 -0.00000000000E+00 -0.00000000000E+00 -0.48980750876E+03  0.48980750876E+03  0.00000000000E+00 0. -1.
          6    2    1    2  501    0 -0.77647323717E+02 -0.12612043259E+02 -0.36765419150E+03  0.41379187383E+03  0.17281764901E+03 0.  0.
         24    2    3    3    0    0 -0.10817309524E+03  0.83184737985E+01 -0.19578588155E+03  0.23792057079E+03  0.80644101151E+02 0.  0.
         -6    2    1    2    0  502  0.77647323717E+02  0.12612043259E+02 -0.98316791377E+01  0.18833727304E+03  0.17083938652E+03 0.  0.
        -24    2    5    5    0    0 -0.14232534018E+02 -0.13999867686E+02  0.23096902443E+02  0.87062974495E+02  0.81534859451E+02 0.  0.
          5    1    3    3  501    0  0.30525771518E+02 -0.20930517057E+02 -0.17186830994E+03  0.17587130304E+03  0.47000000000E+01 0. -1.
        -11    1    4    4    0    0 -0.41930298416E+02 -0.36156355235E+02 -0.82566036434E+02  0.99411178051E+02  0.00000000000E+00 0.  1.
         12    1    4    4    0    0 -0.66242796819E+02  0.44474829034E+02 -0.11321984512E+03  0.13850939274E+03  0.00000000000E+00 0. -1.
         -5    1    5    5    0  502  0.91879857735E+02  0.26611910945E+02 -0.32928581580E+02  0.10127429855E+03  0.47000000000E+01 0.  1.
         11    1    6    6    0    0 -0.11452470810E+02 -0.46391887109E+02  0.10772091550E+01  0.47796722239E+02  0.00000000000E+00 0. -1.
        -12    1    6    6    0    0 -0.27800632080E+01  0.32392019423E+02  0.22019693288E+02  0.39266252256E+02  0.00000000000E+00 0.  1.
</event>
<event>
12    1  0.8297444E-002  0.1752913E+03  0.7818608E-02  0.1173143E+00
         21   -1    0    0  501  502  0.00000000000E+00  0.00000000000E+00  0.36739805939E+02  0.36739805939E+02  0.00000000000E+00 0.  1.
         21   -1    0    0  502  503 -0.00000000000E+00 -0.00000000000E+00 -0.12773231053E+04  0.12773231053E+04  0.00000000000E+00 0.  1.
         -6    2    1    2    0  503  0.20184273321E+02  0.91628969946E+01 -0.10152857278E+04  0.10303068268E+04  0.17388411271E+03 0.  0.
        -24    2    3    3    0    0  0.50372748629E+02  0.62562217541E+02 -0.65046634120E+03  0.66033641401E+03  0.80537406057E+02 0.  0.
          6    2    1    2  501    0 -0.20184273321E+02 -0.91628969946E+01 -0.22529757151E+03  0.28375608441E+03  0.17107646286E+03 0.  0.
         24    2    5    5    0    0 -0.58256169737E+02 -0.14964219308E+02 -0.22294285811E+03  0.24488759702E+03  0.81539610135E+02 0.  0.
          5    1    5    5  501    0  0.38071896416E+02  0.58013223130E+01 -0.23547134030E+01  0.38868487396E+02  0.47000000000E+01 0. -1.
        -13    1    6    6    0    0 -0.15611608229E+01 -0.36383077287E+02 -0.51714589729E+02  0.63250014442E+02  0.00000000000E+00 0.  1.
         14    1    6    6    0    0 -0.56695008914E+02  0.21418857980E+02 -0.17122826838E+03  0.18163758258E+03  0.00000000000E+00 0. -1.
         -5    1    3    3    0  503 -0.30188475308E+02 -0.53399320546E+02 -0.36481938665E+03  0.36997041280E+03  0.47000000000E+01 0.  1.
         11    1    4    4    0    0  0.18492936573E+02 -0.17945753820E+02 -0.11003574350E+03  0.11301284719E+03  0.00000000000E+00 0. -1.
        -12    1    4    4    0    0  0.31879812056E+02  0.80507971361E+02 -0.54043059770E+03  0.54732356682E+03  0.00000000000E+00 0.  1.
</event>
<event>
12    1  0.8297444E-002  0.2163587E+03  0.7818608E-02  0.1136982E+00
         21   -1    0    0  503  502  0.00000000000E+00  0.00000000000E+00  0.53890199497E+03  0.53890199497E+03  0.00000000000E+00 0. -1.
         21   -1    0    0  501  503 -0.00000000000E+00 -0.00000000000E+00 -0.90022768156E+02  0.90022768156E+02  0.00000000000E+00 0. -1.
          6    2    1    2  501    0  0.25894837910E+02 -0.12525117405E+03  0.15990326973E+03  0.26903560484E+03  0.17450702499E+03 0.  0.
         24    2    3    3    0    0 -0.28784444225E+02 -0.85120712441E+02  0.32017760832E+02  0.12420097076E+03  0.79540330736E+02 0.  0.
         -6    2    1    2    0  502 -0.25894837910E+02  0.12525117405E+03  0.28897595709E+03  0.35988915828E+03  0.17220541003E+03 0.  0.
        -24    2    5    5    0    0  0.36893380171E+02  0.12387825787E+03  0.20149668911E+03  0.25209788984E+03  0.79028387705E+02 0.  0.
          5    1    3    3  501    0  0.54679282134E+02 -0.40130461609E+02  0.12788550889E+03  0.14483463408E+03  0.47000000000E+01 0. -1.
        -13    1    4    4    0    0 -0.28041834580E+02 -0.59876780086E+02  0.58010981139E+02  0.87959349775E+02  0.00000000000E+00 0.  1.
         14    1    4    4    0    0 -0.74260964476E+00 -0.25243932355E+02 -0.25993220307E+02  0.36241620987E+02  0.00000000000E+00 0. -1.
         -5    1    5    5    0  502 -0.62788218080E+02  0.13729161816E+01  0.87479267972E+02  0.10779126845E+03  0.47000000000E+01 0.  1.
         11    1    6    6    0    0 -0.61089864373E+01  0.28028795695E+02  0.47732400534E+01  0.29081212561E+02  0.00000000000E+00 0. -1.
        -12    1    6    6    0    0  0.43002366608E+02  0.95849462174E+02  0.19672344906E+03  0.22301667728E+03  0.00000000000E+00 0.  1.
</event>
<event>
12    1  0.8297444E-002  0.2255106E+03  0.7818608E-02  0.1130125E+00
         21   -1    0    0  503  502  0.00000000000E+00  0.00000000000E+00  0.43815016736E+03  0.43815016736E+03  0.00000000000E+00 0.  1.
         21   -1    0    0  501  503 -0.00000000000E+00 -0.00000000000E+00 -0.11794177110E+03  0.11794177110E+03  0.00000000000E+00 0.  1.
          6    2    1    2  501    0 -0.45163303809E+02  0.13530508319E+03  0.11762415017E+03  0.25294941049E+03  0.17262900688E+03 0.  0.
         24    2    3    3    0    0 -0.63419277709E+02  0.61388632239E+02  0.78464143326E+01  0.11927007929E+03  0.79832428521E+02 0.  0.
         -6    2    1    2    0  502  0.45163303809E+02 -0.13530508319E+03  0.20258424609E+03  0.30314252797E+03  0.17466489616E+03 0.  0.
        -24    2    5    5    0    0  0.64458271011E+02 -0.32752613599E+02  0.51117959381E+02  0.11914950965E+03  0.79724259042E+02 0.  0.
          5    1    3    3  501    0  0.18255973900E+02  0.73916450953E+02  0.10977773584E+03  0.13367933120E+03  0.47000000000E+01 0. -1.
        -11    1    4    4    0    0 -0.79903411067E+02  0.35256881143E+02  0.11769006930E+02  0.88125548464E+02  0.00000000000E+00 0.  1.
         12    1    4    4    0    0  0.16484133357E+02  0.26131751097E+02 -0.39225925971E+01  0.31144530830E+02  0.00000000000E+00 0. -1.
         -5    1    5    5    0  502 -0.19294967202E+02 -0.10255246959E+03  0.15146628671E+03  0.18399301831E+03  0.47000000000E+01 0.  1.
         11    1    6    6    0    0  0.22385211281E+00  0.22207028298E+02  0.46764455689E+01  0.22695183602E+02  0.00000000000E+00 0. -1.
        -12    1    6    6    0    0  0.64234418898E+02 -0.54959641897E+02  0.46441513812E+02  0.96454326050E+02  0.00000000000E+00 0.  1.
</event>
<event>
12    1  0.8297444E-002  0.2844739E+03  0.7818608E-02  0.1093876E+00
         21   -1    0    0  503  502  0.00000000000E+00  0.00000000000E+00  0.14118034089E+04  0.14118034089E+04  0.00000000000E+00 0.  1.
         21   -1    0    0  501  503 -0.00000000000E+00 -0.00000000000E+00 -0.71914333382E+02  0.71914333382E+02  0.00000000000E+00 0.  1.
          6    2    1    2  501    0  0.14425394684E+03 -0.16801700056E+03  0.32142525059E+03  0.42627084261E+03  0.17132929081E+03 0.  0.
         24    2    3    3    0    0  0.14177085005E+03 -0.14685692685E+03  0.33510897531E+03  0.40051722516E+03  0.80312461256E+02 0.  0.
         -6    2    1    2    0  502 -0.14425394684E+03  0.16801700056E+03  0.10184638249E+04  0.10574468997E+04  0.17856782822E+03 0.  0.
        -24    2    5    5    0    0 -0.13736176170E+03  0.79644918037E+02  0.47203248748E+03  0.50385280312E+03  0.76429126853E+02 0.  0.
          5    1    3    3  501    0  0.24830967897E+01 -0.21160073714E+02 -0.13683724723E+02  0.25753617446E+02  0.47000000000E+01 0. -1.
        -13    1    4    4    0    0  0.89095473431E+02 -0.81599574222E+02  0.12290801421E+03  0.17234521710E+03  0.00000000000E+00 0.  1.
         14    1    4    4    0    0  0.52675376617E+02 -0.65257352626E+02  0.21220096110E+03  0.22817200807E+03  0.00000000000E+00 0. -1.
         -5    1    5    5    0  502 -0.68921851378E+01  0.88372082525E+02  0.54643133746E+03  0.55359409656E+03  0.47000000000E+01 0.  1.
         11    1    6    6    0    0 -0.41699008827E+02  0.13587244841E+02  0.51979994349E+02  0.68009854963E+02  0.00000000000E+00 0. -1.
        -12    1    6    6    0    0 -0.95662752873E+02  0.66057673196E+02  0.42005249313E+03  0.43584294816E+03  0.00000000000E+00 0.  1.
</event>
<event>
12    1  0.8297444E-002  0.2529042E+03  0.7818608E-02  0.1111574E+00
         21   -1    0    0  501  502  0.00000000000E+00  0.00000000000E+00  0.36027632621E+02  0.36027632621E+02  0.00000000000E+00 0.  1.
         21   -1    0    0  502  503 -0.00000000000E+00 -0.00000000000E+00 -0.28621421447E+04  0.28621421447E+04  0.00000000000E+00 0.  1.
         -6    2    1    2    0  503  0.15749943584E+03 -0.97570552482E+02 -0.23066745291E+04  0.23204341502E+04  0.17129266475E+03 0.  0.
        -24    2    3    3    0    0  0.35072688272E+02 -0.24712070241E+01 -0.11259143843E+04  0.11295316337E+04  0.83200423929E+02 0.  0.
          6    2    1    2  501    0 -0.15749943584E+03  0.97570552482E+02 -0.51943998301E+03  0.57773562719E+03  0.17214666416E+03 0.  0.
         24    2    5    5    0    0 -0.12761665906E+03  0.13883697307E+00 -0.29386491794E+03  0.33016317413E+03  0.79781580657E+02 0.  0.
          5    1    5    5  501    0 -0.29882776781E+02  0.97431715509E+02 -0.22557506507E+03  0.24757245306E+03  0.47000000000E+01 0. -1.
        -11    1    6    6    0    0 -0.19500353187E+02 -0.50407712859E+01 -0.37148619725E+01  0.20481048534E+02  0.00000000000E+00 0.  1.
         12    1    6    6    0    0 -0.10811630587E+03  0.51796082589E+01 -0.29015005597E+03  0.30968212560E+03  0.00000000000E+00 0. -1.
         -5    1    3    3    0  503  0.12242674757E+03 -0.95099345458E+02 -0.11807601449E+04  0.11909025165E+04  0.47000000000E+01 0.  1.
         13    1    4    4    0    0  0.25785823218E+02 -0.23728263226E+02 -0.10385198563E+04  0.10391108849E+04  0.00000000000E+00 0. -1.
        -14    1    4    4    0    0  0.92868650537E+01  0.21257056202E+02 -0.87394527943E+02  0.90420748810E+02  0.00000000000E+00 0.  1.
</event>
<event>
12    1  0.8297444E-002  0.1834172E+03  0.7818608E-02  0.1165513E+00
         21   -1    0    0  503  502  0.00000000000E+00  0.00000000000E+00  0.62169598904E+02  0.62169598904E+02  0.00000000000E+00 0.  1.
         21   -1    0    0  501  503 -0.00000000000E+00 -0.00000000000E+00 -0.69994921521E+03  0.69994921521E+03  0.00000000000E+00 0.  1.
          6    2    1    2  501    0  0.43791390337E+02 -0.33745732051E+02 -0.13337242669E+03  0.22678203302E+03  0.17488689488E+03 0.  0.
         24    2    3    3    0    0 -0.20693360145E+02  0.19566447089E+02 -0.23699448905E+02  0.88757674499E+02  0.80654819436E+02 0.  0.
         -6    2    1    2    0  502 -0.43791390337E+02  0.33745732051E+02 -0.50440718962E+03  0.53533678110E+03  0.17059424362E+03 0.  0.
        -24    2    5    5    0    0 -0.73525036471E+02 -0.80011753814E+01 -0.20542750583E+03  0.23195940008E+03  0.78324666221E+02 0.  0.
          5    1    3    3  501    0  0.64484750482E+02 -0.53312179140E+02 -0.10967297778E+03  0.13802435852E+03  0.47000000000E+01 0. -1.
        -11    1    4    4    0    0 -0.50918481278E+01  0.11557123813E+02 -0.53068751521E+02  0.54550769162E+02  0.00000000000E+00 0.  1.
         12    1    4    4    0    0 -0.15601512017E+02  0.80093232755E+01  0.29369302616E+02  0.34206905337E+02  0.00000000000E+00 0. -1.
         -5    1    5    5    0  502  0.29733646134E+02  0.41746907432E+02 -0.29897968379E+03  0.30337738102E+03  0.47000000000E+01 0.  1.
         11    1    6    6    0    0 -0.15783973560E+02 -0.60523414199E+01 -0.15303886945E+03  0.15396967305E+03  0.00000000000E+00 0. -1.
        -12    1    6    6    0    0 -0.57741062911E+02 -0.19488339615E+01 -0.52388636382E+02  0.77989727028E+02  0.00000000000E+00 0.  1.
</event>
<event>
12    1  0.8297444E-002  0.2160327E+03  0.7818608E-02  0.1136892E+00
         21   -1    0    0  503  502  0.00000000000E+00  0.00000000000E+00  0.29352925121E+02  0.29352925121E+02  0.00000000000E+00 0.  1.
         21   -1    0    0  501  503 -0.00000000000E+00 -0.00000000000E+00 -0.17825539714E+04  0.17825539714E+04  0.00000000000E+00 0.  1.
          6    2    1    2  501    0  0.69505102879E+02 -0.11100776740E+03 -0.11747082656E+04  0.11943924980E+04  0.17169812525E+03 0.  0.
         24    2    3    3    0    0  0.31294662272E+02 -0.10185627938E+03 -0.11140172681E+04  0.11219406196E+04  0.79763542659E+02 0.  0.
         -6    2    1    2    0  502 -0.69505102879E+02  0.11100776740E+03 -0.57849278069E+03  0.61751439855E+03  0.17180352546E+03 0.  0.
        -24    2    5    5    0    0 -0.41106885699E+02 -0.98798612055E+01 -0.28512485343E+03  0.29891259656E+03  0.79152830840E+02 0.  0.
          5    1    3    3  501    0  0.38210440607E+02 -0.91514880154E+01 -0.60690997521E+02  0.72451878405E+02  0.47000000000E+01 0. -1.
        -13    1    4    4    0    0 -0.23322521646E+02 -0.34137216880E+02 -0.23312869055E+03  0.23676628973E+03  0.00000000000E+00 0.  1.
         14    1    4    4    0    0  0.54617183918E+02 -0.67719062501E+02 -0.88088857756E+03  0.88517432988E+03  0.00000000000E+00 0. -1.
         -5    1    5    5    0  502 -0.28398217180E+02  0.12088762860E+03 -0.29336792726E+03  0.31860180199E+03  0.47000000000E+01 0.  1.
         13    1    6    6    0    0 -0.30580227412E+02  0.17112710764E+02 -0.25393861398E+03  0.25634510888E+03  0.00000000000E+00 0. -1.
        -14    1    6    6    0    0 -0.10526658287E+02 -0.26992571969E+02 -0.31186239453E+02  0.42567487680E+02  0.00000000000E+00 0.  1.
</event>
<event>
12    1  0.8297444E-002  0.1806755E+03  0.7818608E-02  0.1167756E+00
         21   -1    0    0  503  502  0.00000000000E+00  0.00000000000E+00  0.64871805015E+03  0.64871805015E+03  0.00000000000E+00 0. -1.
         21   -1    0    0  501  503 -0.00000000000E+00 -0.00000000000E+00 -0.52397410362E+02  0.52397410362E+02  0.00000000000E+00 0. -1.
          6    2    1    2  501    0 -0.47954170522E+02  0.58559767563E+01  0.37679373137E+03  0.41679926834E+03  0.17150574090E+03 0.  0.
         24    2    3    3    0    0  0.26266914274E+02 -0.33450966048E+02  0.15740697085E+03  0.18183874854E+03  0.80495081094E+02 0.  0.
         -6    2    1    2    0  502  0.47954170522E+02 -0.58559767563E+01  0.21952690843E+03  0.28431619217E+03  0.17409692322E+03 0.  0.
        -24    2    5    5    0    0  0.98098388228E+02 -0.22133068166E+02  0.16548734058E+03  0.20867393436E+03  0.77753356901E+02 0.  0.
          5    1    3    3  501    0 -0.74221084796E+02  0.39306942804E+02  0.21938676051E+03  0.23496051981E+03  0.47000000000E+01 0. -1.
        -11    1    4    4    0    0 -0.17844435360E+02 -0.40928464527E+02  0.61391794376E+02  0.75911234337E+02  0.00000000000E+00 0.  1.
         12    1    4    4    0    0  0.44111349634E+02  0.74774984788E+01  0.96015176479E+02  0.10592751420E+03  0.00000000000E+00 0. -1.
         -5    1    5    5    0  502 -0.50144217706E+02  0.16277091410E+02  0.54039567846E+02  0.75642257813E+02  0.47000000000E+01 0.  1.
         13    1    6    6    0    0  0.48273425437E+02 -0.16464429261E+02  0.19996842825E+02  0.54783891403E+02  0.00000000000E+00 0. -1.
        -14    1    6    6    0    0  0.49824962791E+02 -0.56686389052E+01  0.14549049775E+03  0.15389004296E+03  0.00000000000E+00 0.  1.
</event>
<event>
12    1  0.8297444E-002  0.1767313E+03  0.7818608E-02  0.1171039E+00
         21   -1    0    0  503  502  0.00000000000E+00  0.00000000000E+00  0.14514244900E+03  0.14514244900E+03  0.00000000000E+00 0. -1.
         21   -1    0    0  501  503 -0.00000000000E+00 -0.00000000000E+00 -0.23127321613E+03  0.23127321613E+03  0.00000000000E+00 0. -1.
          6    2    1    2  501    0 -0.51759810236E+01  0.46776109038E+02 -0.92932275879E+02  0.19955351690E+03  0.17020694184E+03 0.  0.
         24    2    3    3    0    0  0.39174144570E+02  0.58297620676E+02 -0.10971115319E+03  0.15053005727E+03  0.75429005208E+02 0.  0.
         -6    2    1    2    0  502  0.51759810236E+01 -0.46776109038E+02  0.68015087536E+01  0.17686214823E+03  0.17035012122E+03 0.  0.
        -24    2    5    5    0    0  0.76662073511E+01 -0.97122095829E+02  0.80367859353E+01  0.12622090493E+03  0.79847696771E+02 0.  0.
          5    1    3    3  501    0 -0.44350125593E+02 -0.11521511638E+02  0.16778877315E+02  0.49023459634E+02  0.47000000000E+01 0. -1.
        -13    1    4    4    0    0  0.26434604781E+02  0.31416948792E+02 -0.46291063694E+01  0.41318780561E+02  0.00000000000E+00 0.  1.
         14    1    4    4    0    0  0.12739539789E+02  0.26880671885E+02 -0.10508204683E+03  0.10921127671E+03  0.00000000000E+00 0. -1.
         -5    1    5    5    0  502 -0.24902263275E+01  0.50345986791E+02 -0.12352771817E+01  0.50641243299E+02  0.47000000000E+01 0.  1.
         11    1    6    6    0    0  0.22126580816E+02 -0.54911867190E+00  0.17357145141E+02  0.28127523840E+02  0.00000000000E+00 0. -1.
        -12    1    6    6    0    0 -0.14460373465E+02 -0.96572977157E+02 -0.93203592060E+01  0.98093381089E+02  0.00000000000E+00 0.  1.
</event>
<event>
12    1  0.8297444E-002  0.1835535E+03  0.7818608E-02  0.1164566E+00
         21   -1    0    0  503  502  0.00000000000E+00  0.00000000000E+00  0.37880902652E+03  0.37880902652E+03  0.00000000000E+00 0. -1.
         21   -1    0    0  501  503 -0.00000000000E+00 -0.00000000000E+00 -0.19558460010E+03  0.19558460010E+03  0.00000000000E+00 0.  1.
          6    2    1    2  501    0  0.53498148477E+02 -0.36238450551E+02 -0.12070393630E+03  0.21968461310E+03  0.17180399240E+03 0.  0.
         24    2    3    3    0    0  0.66489767088E+02 -0.38440653396E+02 -0.13808807842E+02  0.11187788632E+03  0.80171100230E+02 0.  0.
         -6    2    1    2    0  502 -0.53498148477E+02  0.36238450551E+02  0.30392836272E+03  0.35470901352E+03  0.17108698787E+03 0.  0.
        -24    2    5    5    0    0 -0.51134105303E+02  0.78967899005E+01  0.60246942709E+02  0.10932856832E+03  0.75139774614E+02 0.  0.
          5    1    3    3  501    0 -0.12991618610E+02  0.22022028457E+01 -0.10689512845E+03  0.10780672678E+03  0.47000000000E+01 0. -1.
        -11    1    4    4    0    0  0.38026822194E+02 -0.59342351669E+02  0.71021499061E+01  0.70837803756E+02  0.00000000000E+00 0.  1.
         12    1    4    4    0    0  0.28462944894E+02  0.20901698273E+02 -0.20910957749E+02  0.41040082562E+02  0.00000000000E+00 0. -1.
         -5    1    5    5    0  502 -0.23640431740E+01  0.28341660650E+02  0.24368142001E+03  0.24538044520E+03  0.47000000000E+01 0.  1.
         13    1    6    6    0    0 -0.29901941974E+02 -0.62960034926E+01  0.74186205342E+02  0.80233153103E+02  0.00000000000E+00 0. -1.
        -14    1    6    6    0    0 -0.21232163329E+02  0.14192793393E+02 -0.13939262632E+02  0.29095415217E+02  0.00000000000E+00 0.  1.
</event>
<event>
12    1  0.8297444E-002  0.1936380E+03  0.7818608E-02  0.1155315E+00
         21   -1    0    0  503  502  0.00000000000E+00  0.00000000000E+00  0.52641026218E+03  0.52641026218E+03  0.00000000000E+00 0.  1.
         21   -1    0    0  501  503 -0.00000000000E+00 -0.00000000000E+00 -0.71953108473E+02  0.71953108473E+02  0.00000000000E+00 0. -1.
          6    2    1    2  501    0 -0.60027690013E+02  0.66556145021E+02  0.19435405026E+03  0.27435231064E+03  0.17164687441E+03 0.  0.
         24    2    3    3    0    0 -0.32965315561E+02  0.89928156227E+02  0.20256999132E+03  0.23736292424E+03  0.78312011264E+02 0.  0.
         -6    2    1    2    0  502  0.60027690013E+02 -0.66556145021E+02  0.26010310345E+03  0.32401106001E+03  0.17116219961E+03 0.  0.
        -24    2    5    5    0    0 -0.25026668882E+02  0.18739056293E+01  0.90935498061E+02  0.12262415747E+03  0.78342667245E+02 0.  0.
          5    1    3    3  501    0 -0.27062374453E+02 -0.23372011205E+02 -0.82159410649E+01  0.36989386402E+02  0.47000000000E+01 0. -1.
        -13    1    4    4    0    0 -0.48927369208E+02  0.32992848632E+02  0.65960546304E+02  0.88505418971E+02  0.00000000000E+00 0.  1.
         14    1    4    4    0    0  0.15962053647E+02  0.56935307595E+02  0.13660944502E+03  0.14885750527E+03  0.00000000000E+00 0. -1.
         -5    1    5    5    0  502  0.85054358895E+02 -0.68430050651E+02  0.16916760539E+03  0.20138690253E+03  0.47000000000E+01 0.  1.
         11    1    6    6    0    0  0.57377275932E+00  0.32671854282E+02  0.13323978908E+02  0.35288917401E+02  0.00000000000E+00 0. -1.
        -12    1    6    6    0    0 -0.25600441641E+02 -0.30797948652E+02  0.77611519153E+02  0.87335240074E+02  0.00000000000E+00 0.  1.
</event>
<event>
12    1  0.8297444E-002  0.2871117E+03  0.7818608E-02  0.1091879E+00
         21   -1    0    0  503  502  0.00000000000E+00  0.00000000000E+00  0.38494002361E+03  0.38494002361E+03  0.00000000000E+00 0.  1.
         21   -1    0    0  501  503 -0.00000000000E+00 -0.00000000000E+00 -0.27829025132E+03  0.27829025132E+03  0.00000000000E+00 0.  1.
          6    2    1    2  501    0 -0.22520192721E+03  0.47867728123E+02 -0.10597690698E+03  0.30595833863E+03  0.17138311688E+03 0.  0.
         24    2    3    3    0    0 -0.14134049081E+03 -0.31791996858E+02 -0.94092506091E+02  0.18958935100E+03  0.78120784053E+02 0.  0.
         -6    2    1    2    0  502  0.22520192721E+03 -0.47867728123E+02  0.21262667926E+03  0.35727193630E+03  0.17153980389E+03 0.  0.
        -24    2    5    5    0    0  0.16404919670E+03  0.33007880373E+02  0.12761377292E+03  0.22487176733E+03  0.79248833419E+02 0.  0.
          5    1    3    3  501    0 -0.83861436400E+02  0.79659724981E+02 -0.11884400884E+02  0.11636898764E+03  0.47000000000E+01 0. -1.
        -13    1    4    4    0    0 -0.79378870840E+02  0.21879292321E+02 -0.52666515531E+02  0.97741856061E+02  0.00000000000E+00 0.  1.
         14    1    4    4    0    0 -0.61961619975E+02 -0.53671289179E+02 -0.41425990561E+02  0.91847494936E+02  0.00000000000E+00 0. -1.
         -5    1    5    5    0  502  0.61152730511E+02 -0.80875608496E+02  0.85012906345E+02  0.13240016897E+03  0.47000000000E+01 0.  1.
         11    1    6    6    0    0  0.35433570392E+02 -0.25304408761E+02  0.36458072637E+02  0.56789453897E+02  0.00000000000E+00 0. -1.
        -12    1    6    6    0    0  0.12861562631E+03  0.58312289134E+02  0.91155700281E+02  0.16808231343E+03  0.00000000000E+00 0.  1.
</event>
<event>
12    1  0.8297444E-002  0.2486259E+03  0.7818608E-02  0.1114245E+00
         21   -1    0    0  503  502  0.00000000000E+00  0.00000000000E+00  0.77666822338E+03  0.77666822338E+03  0.00000000000E+00 0.  1.
         21   -1    0    0  501  503 -0.00000000000E+00 -0.00000000000E+00 -0.79489463945E+02  0.79489463945E+02  0.00000000000E+00 0. -1.
          6    2    1    2  501    0 -0.10645671242E+03  0.14350239448E+03  0.35767596345E+03  0.43535252847E+03  0.17226073369E+03 0.  0.
         24    2    3    3    0    0 -0.95455723807E+02  0.22542003498E+02  0.17904330547E+03  0.21928736600E+03  0.80065638835E+02 0.  0.
         -6    2    1    2    0  502  0.10645671242E+03 -0.14350239448E+03  0.33950279598E+03  0.42080515886E+03  0.17288396224E+03 0.  0.
        -24    2    5    5    0    0 -0.13725490044E+02 -0.62609682262E+02  0.11190805438E+03  0.15097400964E+03  0.78494442883E+02 0.  0.
          5    1    3    3  501    0 -0.11000988610E+02  0.12096039098E+03  0.17863265798E+03  0.21606516247E+03  0.47000000000E+01 0. -1.
        -13    1    4    4    0    0 -0.82125156251E-01  0.17852283523E+02  0.78983027570E+02  0.80975486510E+02  0.00000000000E+00 0.  1.
         14    1    4    4    0    0 -0.95373598651E+02  0.46897199749E+01  0.10006027790E+03  0.13831187949E+03  0.00000000000E+00 0. -1.
         -5    1    5    5    0  502  0.12018220246E+03 -0.80892712219E+02  0.22759474161E+03  0.26983114921E+03  0.47000000000E+01 0.  1.
         13    1    6    6    0    0 -0.22333609167E+02  0.95539276019E+01  0.11117554826E+02  0.26714558884E+02  0.00000000000E+00 0. -1.
        -14    1    6    6    0    0  0.86081191233E+01 -0.72163609864E+02  0.10079049955E+03  0.12425945076E+03  0.00000000000E+00 0.  1.
</event>
<event>
12    1  0.8297444E-002  0.1987686E+03  0.7818608E-02  0.1151029E+00
         21   -1    0    0  503  502  0.00000000000E+00  0.00000000000E+00  0.21732493628E+04  0.21732493628E+04  0.00000000000E+00 0. -1.
         21   -1    0    0  501  503 -0.00000000000E+00 -0.00000000000E+00 -0.24352687299E+02  0.24352687299E+02  0.00000000000E+00 0. -1.
          6    2    1    2  501    0 -0.34525099380E+02 -0.93010520101E+02  0.51417828093E+03  0.55084365746E+03  0.17089906682E+03 0.  0.
         24    2    3    3    0    0  0.24739794423E+02  0.32507163652E+01  0.24158805621E+03  0.25570627605E+03  0.79989287581E+02 0.  0.
         -6    2    1    2    0  502  0.34525099380E+02  0.93010520101E+02  0.16347183946E+04  0.16467583927E+04  0.17223830835E+03 0.  0.
        -24    2    5    5    0    0 -0.12060850471E+02  0.66101778809E+02  0.50421528272E+03  0.51496613830E+03  0.80263086135E+02 0.  0.
          5    1    3    3  501    0 -0.59264893803E+02 -0.96261236467E+02  0.27259022473E+03  0.29513738140E+03  0.47000000000E+01 0. -1.
        -11    1    4    4    0    0  0.25068795701E+01 -0.22768922988E+02  0.20233787738E+03  0.20363036346E+03  0.00000000000E+00 0.  1.
         12    1    4    4    0    0  0.22232914853E+02  0.26019639353E+02  0.39250178823E+02  0.52075912595E+02  0.00000000000E+00 0. -1.
         -5    1    5    5    0  502  0.46585949851E+02  0.26908741292E+02  0.11305031119E+04  0.11317922544E+04  0.47000000000E+01 0.  1.
         13    1    6    6    0    0  0.26149743579E+02  0.39056538031E+01  0.21764531009E+03  0.21924539727E+03  0.00000000000E+00 0. -1.
        -14    1    6    6    0    0 -0.38210594051E+02  0.62196125006E+02  0.28656997263E+03  0.29572074103E+03  0.00000000000E+00 0.  1.
</event>
<event>
12    1  0.8297444E-002  0.2612472E+03  0.7818608E-02  0.1107343E+00
         21   -1    0    0  503  502  0.00000000000E+00  0.00000000000E+00  0.21524619685E+03  0.21524619685E+03  0.00000000000E+00 0.  1.
         21   -1    0    0  501  503 -0.00000000000E+00 -0.00000000000E+00 -0.16060274923E+04  0.16060274923E+04  0.00000000000E+00 0.  1.
          6    2    1    2  501    0  0.15852639120E+03 -0.11262836943E+03 -0.15119453828E+04  0.15332965133E+04  0.16493511106E+03 0.  0.
         24    2    3    3    0    0  0.17933887230E+02 -0.64785733219E+02 -0.72196826899E+03  0.72946748898E+03  0.79786092234E+02 0.  0.
         -6    2    1    2    0  502 -0.15852639120E+03  0.11262836943E+03  0.12116408740E+03  0.28797717580E+03  0.17445443931E+03 0.  0.
        -24    2    5    5    0    0 -0.88099582601E+02  0.61550488226E+02  0.14522890678E+03  0.19758862093E+03  0.79998929385E+02 0.  0.
          5    1    3    3  501    0  0.14059250397E+03 -0.47842636214E+02 -0.78997711383E+03  0.80382902436E+03  0.47000000000E+01 0. -1.
        -13    1    4    4    0    0  0.11729075942E+02 -0.44736582190E+02 -0.14672168578E+03  0.15383818150E+03  0.00000000000E+00 0.  1.
         14    1    4    4    0    0  0.62048112883E+01 -0.20049151029E+02 -0.57524658321E+03  0.57562930748E+03  0.00000000000E+00 0. -1.
         -5    1    5    5    0  502 -0.70426808601E+02  0.51077881208E+02 -0.24064819382E+02  0.90388554864E+02  0.47000000000E+01 0.  1.
         13    1    6    6    0    0 -0.12347237106E+02  0.40226271624E+02  0.95859243377E+02  0.10468811649E+03  0.00000000000E+00 0. -1.
        -14    1    6    6    0    0 -0.75752345496E+02  0.21324216602E+02  0.49369663399E+02  0.92900504444E+02  0.00000000000E+00 0.  1.
</event>
<event>
12    1  0.8297444E-002  0.2675799E+03  0.7818608E-02  0.1102707E+00
         21   -1    0    0  501  502  0.00000000000E+00  0.00000000000E+00  0.25846291070E+03  0.25846291070E+03  0.00000000000E+00 0.  1.
         21   -1    0    0  502  503 -0.00000000000E+00 -0.00000000000E+00 -0.31439010444E+03  0.31439010444E+03  0.00000000000E+00 0.  1.
         -6    2    1    2    0  503 -0.12609932455E+03  0.16249648073E+03 -0.12702939530E+03  0.29598744312E+03  0.17078042427E+03 0.  0.
        -24    2    3    3    0    0 -0.43193334941E+02  0.12623916163E+03 -0.19682038580E+02  0.15551131954E+03  0.77423496117E+02 0.  0.
          6    2    1    2  501    0  0.12609932455E+03 -0.16249648073E+03  0.71102201561E+02  0.27686557203E+03  0.17115161701E+03 0.  0.
         24    2    5    5    0    0  0.10075534897E+03 -0.91957737777E+02 -0.17996640689E+02  0.16033778544E+03  0.82319259484E+02 0.  0.
          5    1    5    5  501    0  0.25343975575E+02 -0.70538742953E+02  0.89098842250E+02  0.11652778658E+03  0.47000000000E+01 0. -1.
        -13    1    6    6    0    0  0.98766723311E+02 -0.72029018670E+02  0.13529317145E+02  0.12298816035E+03  0.00000000000E+00 0.  1.
         14    1    6    6    0    0  0.19886256602E+01 -0.19928719108E+02 -0.31525957835E+02  0.37349625094E+02  0.00000000000E+00 0. -1.
         -5    1    3    3    0  503 -0.82905989604E+02  0.36257319102E+02 -0.10734735672E+03  0.14047612358E+03  0.47000000000E+01 0.  1.
         11    1    4    4    0    0 -0.94709765279E+01  0.60103579679E+01  0.21313723993E+02  0.24085236759E+02  0.00000000000E+00 0. -1.
        -12    1    4    4    0    0 -0.33722358413E+02  0.12022880366E+03 -0.40995762573E+02  0.13142608278E+03  0.00000000000E+00 0.  1.
</event>
<event>
12    1  0.8297444E-002  0.2934970E+03  0.7818608E-02  0.1088787E+00
         21   -1    0    0  503  502  0.00000000000E+00  0.00000000000E+00  0.83418389592E+03  0.83418389592E+03  0.00000000000E+00 0. -1.
         21   -1    0    0  501  503 -0.00000000000E+00 -0.00000000000E+00 -0.11872072820E+03  0.11872072820E+03  0.00000000000E+00 0.  1.
          6    2    1    2  501    0  0.19944738604E+03 -0.12872278190E+03  0.18309179663E+03  0.34592350630E+03  0.17260258352E+03 0.  0.
         24    2    3    3    0    0  0.12472320196E+03 -0.15354584693E+03  0.14966051383E+03  0.26025187206E+03  0.78743655587E+02 0.  0.
         -6    2    1    2    0  502 -0.19944738604E+03  0.12872278190E+03  0.53237137109E+03  0.60698111782E+03  0.16928669841E+03 0.  0.
        -24    2    5    5    0    0 -0.17078540971E+03  0.46523239563E+02  0.30498925236E+03  0.36345906222E+03  0.88045317106E+02 0.  0.
          5    1    3    3  501    0  0.74724184078E+02  0.24823065027E+02  0.33431282799E+02  0.85671634238E+02  0.47000000000E+01 0. -1.
        -13    1    4    4    0    0  0.70186494351E+01 -0.52738309220E+02  0.15877969357E+02  0.55522073180E+02  0.00000000000E+00 0.  1.
         14    1    4    4    0    0  0.11770455253E+03 -0.10080753771E+03  0.13378254448E+03  0.20472979888E+03  0.00000000000E+00 0. -1.
         -5    1    5    5    0  502 -0.28661976331E+02  0.82199542337E+02  0.22738211873E+03  0.24352205560E+03  0.47000000000E+01 0.  1.
         13    1    6    6    0    0 -0.13562542737E+03  0.13266614101E+02  0.27392797583E+03  0.30595227657E+03  0.00000000000E+00 0. -1.
        -14    1    6    6    0    0 -0.35159982343E+02  0.33256625462E+02  0.31061276529E+02  0.57506785644E+02  0.00000000000E+00 0.  1.
</event>
<event>
12    1  0.8297444E-002  0.4149181E+03  0.7818608E-02  0.1038739E+00
         21   -1    0    0  503  502  0.00000000000E+00  0.00000000000E+00  0.34053746209E+03  0.34053746209E+03  0.00000000000E+00 0. -1.
         21   -1    0    0  501  503 -0.00000000000E+00 -0.00000000000E+00 -0.50895900387E+03  0.50895900387E+03  0.00000000000E+00 0.  1.
          6    2    1    2  501    0  0.78861052845E+02 -0.36890607157E+03 -0.11947372580E+03  0.43177660162E+03  0.17276083831E+03 0.  0.
         24    2    3    3    0    0  0.55646966688E+02 -0.22145720366E+03 -0.15395792977E+01  0.24148573122E+03  0.78569142325E+02 0.  0.
         -6    2    1    2    0  502 -0.78861052845E+02  0.36890607157E+03 -0.48947815980E+02  0.41771986433E+03  0.17257821725E+03 0.  0.
        -24    2    5    5    0    0 -0.27780660040E+02  0.33523427997E+03 -0.70789183057E+02  0.35258821769E+03  0.78444600032E+02 0.  0.
          5    1    3    3  501    0  0.23214086157E+02 -0.14744886791E+03 -0.11793414651E+03  0.19029087040E+03  0.47000000000E+01 0. -1.
        -11    1    4    4    0    0  0.34919188816E+02 -0.23645564079E+02  0.51078009827E+01  0.42480019763E+02  0.00000000000E+00 0.  1.
         12    1    4    4    0    0  0.20727777872E+02 -0.19781163958E+03 -0.66473802804E+01  0.19900571146E+03  0.00000000000E+00 0. -1.
         -5    1    5    5    0  502 -0.51080392804E+02  0.33671791598E+02  0.21841367077E+02  0.65131646642E+02  0.47000000000E+01 0.  1.
         13    1    6    6    0    0  0.12146077011E+02  0.24306372408E+02  0.98487296045E+01  0.28901979192E+02  0.00000000000E+00 0. -1.
        -14    1    6    6    0    0 -0.39926737051E+02  0.31092790757E+03 -0.80637912662E+02  0.32368623850E+03  0.00000000000E+00 0.  1.
</event>
<event>
12    1  0.8297444E-002  0.1753109E+03  0.7818608E-02  0.1173303E+00
         21   -1    0    0  501  502  0.00000000000E+00  0.00000000000E+00  0.12081509904E+03  0.12081509904E+03  0.00000000000E+00 0.  1.
         21   -1    0    0  502  503 -0.00000000000E+00 -0.00000000000E+00 -0.36235220056E+03  0.36235220056E+03  0.00000000000E+00 0.  1.
         -6    2    1    2    0  503 -0.70611989110E+01  0.24842370187E+02 -0.25483947295E+03  0.30735239123E+03  0.16986857135E+03 0.  0.
        -24    2    3    3    0    0  0.50098580726E+02 -0.10297214283E+02 -0.96044847798E+02  0.13489992304E+03  0.79733782273E+02 0.  0.
          6    2    1    2  501    0  0.70611989110E+01 -0.24842370187E+02  0.13302371432E+02  0.17581490837E+03  0.17339816906E+03 0.  0.
         24    2    5    5    0    0  0.18908124486E+01  0.50699735369E+02 -0.11549981266E+02  0.95983385512E+02  0.80655873245E+02 0.  0.
          5    1    5    5  501    0  0.51703864624E+01 -0.75542105556E+02  0.24852352698E+02  0.79831522863E+02  0.47000000000E+01 0. -1.
        -13    1    6    6    0    0  0.37599813883E+02  0.19239502970E+02 -0.21454377670E+02  0.47372933198E+02  0.00000000000E+00 0.  1.
         14    1    6    6    0    0 -0.35709001434E+02  0.31460232399E+02  0.99043964043E+01  0.48610452314E+02  0.00000000000E+00 0. -1.
         -5    1    3    3    0  503 -0.57159779637E+02  0.35139584469E+02 -0.15879462516E+03  0.17245246819E+03  0.47000000000E+01 0.  1.
         13    1    4    4    0    0  0.31288027835E+01 -0.30051426892E+02 -0.50829438729E+01  0.30638439639E+02  0.00000000000E+00 0. -1.
        -14    1    4    4    0    0  0.46969777943E+02  0.19754212610E+02 -0.90961903925E+02  0.10426148340E+03  0.00000000000E+00 0.  1.
</event>
<event>
12    1  0.8297444E-002  0.1882060E+03  0.7818608E-02  0.1160563E+00
         21   -1    0    0  501  502  0.00000000000E+00  0.00000000000E+00  0.27984561783E+03  0.27984561783E+03  0.00000000000E+00 0. -1.
         21   -1    0    0  502  503 -0.00000000000E+00 -0.00000000000E+00 -0.14835180256E+03  0.14835180256E+03  0.00000000000E+00 0. -1.
         -6    2    1    2    0  503  0.38003885823E+02 -0.67593088773E+02  0.15064359514E+03  0.24107050588E+03  0.17148870243E+03 0.  0.
        -24    2    3    3    0    0  0.19184845622E+02 -0.48251344566E+02  0.57488172835E+01  0.93609168594E+02  0.77674815678E+02 0.  0.
          6    2    1    2  501    0 -0.38003885823E+02  0.67593088773E+02 -0.19149779873E+02  0.18712691451E+03  0.16922365993E+03 0.  0.
         24    2    5    5    0    0 -0.56865334359E+02  0.42269661918E+00 -0.52580057102E+02  0.10962020991E+03  0.77576304964E+02 0.  0.
          5    1    5    5  501    0  0.18861448535E+02  0.67170392154E+02  0.33430277229E+02  0.77506704604E+02  0.47000000000E+01 0. -1.
        -13    1    6    6    0    0  0.36333801304E+01 -0.13861552435E+02 -0.44723982519E+02  0.46963589082E+02  0.00000000000E+00 0.  1.
         14    1    6    6    0    0 -0.60498714489E+02  0.14284249054E+02 -0.78560745830E+01  0.62656620829E+02  0.00000000000E+00 0. -1.
         -5    1    3    3    0  503  0.18819040201E+02 -0.19341744207E+02  0.14489477786E+03  0.14746133728E+03  0.47000000000E+01 0.  1.
         11    1    4    4    0    0  0.36712864535E+00 -0.34633725546E+02  0.39565228459E+02  0.52583619423E+02  0.00000000000E+00 0. -1.
        -12    1    4    4    0    0  0.18817716977E+02 -0.13617619021E+02 -0.33816411175E+02  0.41025549171E+02  0.00000000000E+00 0.  1.
</event>
<event>
12    1  0.8297444E-002  0.1968010E+03  0.7818608E-02  0.1152623E+00
         21   -1    0    0  503  502  0.00000000000E+00  0.00000000000E+00  0.14953659809E+03  0.14953659809E+03  0.00000000000E+00 0.  1.
         21   -1    0    0  501  503 -0.00000000000E+00 -0.00000000000E+00 -0.59603184041E+03  0.59603184041E+03  0.00000000000E+00 0.  1.
          6    2    1    2  501    0  0.27048480010E+02 -0.91128355654E+02 -0.50414327461E+03  0.54119412515E+03  0.17232133439E+03 0.  0.
         24    2    3    3    0    0  0.57665526642E+02 -0.77650274549E+02 -0.20747704735E+03  0.24261079907E+03  0.80364149643E+02 0.  0.
         -6    2    1    2    0  502 -0.27048480010E+02  0.91128355654E+02  0.57648032289E+02  0.20437431335E+03  0.17149217724E+03 0.  0.
        -24    2    5    5    0    0  0.58732086770E+01  0.70127052657E+02  0.10010345790E+03  0.14649991938E+03  0.80555732264E+02 0.  0.
          5    1    3    3  501    0 -0.30617046632E+02 -0.13478081105E+02 -0.29666622726E+03  0.29858332608E+03  0.47000000000E+01 0. -1.
        -11    1    4    4    0    0  0.24526574692E+02 -0.43999387929E+02 -0.18221582337E+03  0.18905053634E+03  0.00000000000E+00 0.  1.
         12    1    4    4    0    0  0.33138951950E+02 -0.33650886620E+02 -0.25261223980E+02  0.53560262729E+02  0.00000000000E+00 0. -1.
         -5    1    5    5    0  502 -0.32921688687E+02  0.21001302997E+02 -0.42455425607E+02  0.57874393967E+02  0.47000000000E+01 0.  1.
         13    1    6    6    0    0  0.39388317469E+02  0.22508393955E+02  0.26115979976E+02  0.52346076850E+02  0.00000000000E+00 0. -1.
        -14    1    6    6    0    0 -0.33515108792E+02  0.47618658702E+02  0.73987477919E+02  0.94153842528E+02  0.00000000000E+00 0.  1.
</event>
<event>
12    1  0.8297444E-002  0.2428993E+03  0.7818608E-02  0.1118013E+00
         21   -1    0    0  501  502  0.00000000000E+00  0.00000000000E+00  0.89953408668E+02  0.89953408668E+02  0.00000000000E+00 0.  1.
         21   -1    0    0  502  503 -0.00000000000E+00 -0.00000000000E+00 -0.65811711164E+03  0.65811711164E+03  0.00000000000E+00 0.  1.
         -6    2    1    2    0  503 -0.11220322947E+03 -0.12803825755E+03 -0.25277090966E+03  0.34998423614E+03  0.17208274950E+03 0.  0.
        -24    2    3    3    0    0 -0.87333886223E+02 -0.55867019911E+02 -0.23831359150E+03  0.27214930937E+03  0.80768478402E+02 0.  0.
          6    2    1    2  501    0  0.11220322947E+03  0.12803825755E+03 -0.31539279332E+03  0.39808628417E+03  0.17325332744E+03 0.  0.
         24    2    5    5    0    0  0.28895557878E+02 -0.58745117670E+01 -0.95779797580E+02  0.12767038999E+03  0.79098013255E+02 0.  0.
          5    1    5    5  501    0  0.83307671592E+02  0.13391276932E+03 -0.21961299574E+03  0.27041589419E+03  0.47000000000E+01 0. -1.
        -11    1    6    6    0    0 -0.39795425076E+01  0.32432510512E+02 -0.27199538091E+02  0.42514931131E+02  0.00000000000E+00 0.  1.
         12    1    6    6    0    0  0.32875100385E+02 -0.38307022279E+02 -0.68580259489E+02  0.85155458855E+02  0.00000000000E+00 0. -1.
         -5    1    3    3    0  503 -0.24869343247E+02 -0.72171237640E+02 -0.14457318159E+02  0.77834926764E+02  0.47000000000E+01 0.  1.
         11    1    4    4    0    0 -0.12535033435E+02  0.89353646688E+01 -0.10497088234E+03  0.10609360935E+03  0.00000000000E+00 0. -1.
        -12    1    4    4    0    0 -0.74798852788E+02 -0.64802384579E+02 -0.13334270915E+03  0.16605570002E+03  0.00000000000E+00 0.  1.
</event>
<event>
12    1  0.8297444E-002  0.1999455E+03  0.7818608E-02  0.1149934E+00
         21   -1    0    0  503  502  0.00000000000E+00  0.00000000000E+00  0.71844322793E+02  0.71844322793E+02  0.00000000000E+00 0.  1.
         21   -1    0    0  501  503 -0.00000000000E+00 -0.00000000000E+00 -0.88551804205E+03  0.88551804205E+03  0.00000000000E+00 0. -1.
          6    2    1    2  501    0  0.61218338971E+02 -0.83481006569E+02 -0.69905606367E+03  0.72689455615E+03  0.17023381608E+03 0.  0.
         24    2    3    3    0    0  0.12819113917E+02  0.11329795735E+02 -0.40509642306E+03  0.41421911176E+03  0.84744714425E+02 0.  0.
         -6    2    1    2    0  502 -0.61218338971E+02  0.83481006569E+02 -0.11461765559E+03  0.23046780868E+03  0.17105975676E+03 0.  0.
        -24    2    5    5    0    0 -0.73834029532E+02  0.38827320699E+02 -0.22938445782E+01  0.10884611724E+03  0.69879830892E+02 0.  0.
          5    1    3    3  501    0  0.48399225054E+02 -0.94810802304E+02 -0.29395964061E+03  0.31267544439E+03  0.47000000000E+01 0. -1.
        -11    1    4    4    0    0 -0.31714759938E+02  0.24152529548E+02 -0.17181809954E+03  0.17638205695E+03  0.00000000000E+00 0.  1.
         12    1    4    4    0    0  0.44533873855E+02 -0.12822733813E+02 -0.23327832351E+03  0.23783705482E+03  0.00000000000E+00 0. -1.
         -5    1    5    5    0  502  0.12615690561E+02  0.44653685870E+02 -0.11232381101E+03  0.12162169144E+03  0.47000000000E+01 0.  1.
         11    1    6    6    0    0 -0.42652116950E+02  0.16771447712E+02 -0.35707578185E+02  0.58099188277E+02  0.00000000000E+00 0. -1.
        -12    1    6    6    0    0 -0.31181912583E+02  0.22055872988E+02  0.33413733607E+02  0.50746928962E+02  0.00000000000E+00 0.  1.
</event>
<event>
12    1  0.8297444E-002  0.2020508E+03  0.7818608E-02  0.1148076E+00
         21   -1    0    0  503  502  0.00000000000E+00  0.00000000000E+00  0.33064334838E+03  0.33064334838E+03  0.00000000000E+00 0. -1.
         21   -1    0    0  501  503 -0.00000000000E+00 -0.00000000000E+00 -0.12331412429E+03  0.12331412429E+03  0.00000000000E+00 0. -1.
          6    2    1    2  501    0  0.80880046564E+02 -0.68580401791E+02  0.10202364710E+03  0.22634789163E+03  0.17198747058E+03 0.  0.
         24    2    3    3    0    0  0.52345313280E+02 -0.11329741698E+03  0.65095921594E+02  0.16154365287E+03  0.79262451751E+02 0.  0.
         -6    2    1    2    0  502 -0.80880046564E+02  0.68580401791E+02  0.10530557699E+03  0.22760958105E+03  0.17167411976E+03 0.  0.
        -24    2    5    5    0    0 -0.84026668612E+02  0.10736547922E+03  0.72409883550E+02  0.17643927610E+03  0.85438865564E+02 0.  0.
          5    1    3    3  501    0  0.28534733284E+02  0.44717015184E+02  0.36927725502E+02  0.64804238761E+02  0.47000000000E+01 0. -1.
        -13    1    4    4    0    0 -0.19986711413E+02 -0.25974978813E+02  0.25192290297E+02  0.41337871835E+02  0.00000000000E+00 0.  1.
         14    1    4    4    0    0  0.72332024693E+02 -0.87322438162E+02  0.39903631297E+02  0.12020578103E+03  0.00000000000E+00 0. -1.
         -5    1    5    5    0  502  0.31466220481E+01 -0.38785077427E+02  0.32895693445E+02  0.51170304949E+02  0.47000000000E+01 0.  1.
         11    1    6    6    0    0 -0.82245188967E+02  0.65569525364E+02  0.82178344007E+02  0.13348001344E+03  0.00000000000E+00 0. -1.
        -12    1    6    6    0    0 -0.17814796449E+01  0.41795953854E+02 -0.97684604579E+01  0.42959262657E+02  0.00000000000E+00 0.  1.
</event>
<event>
12    1  0.8297444E-002  0.3447912E+03  0.7818608E-02  0.1064811E+00
         21   -1    0    0  503  502  0.00000000000E+00  0.00000000000E+00  0.20867216880E+03  0.20867216880E+03  0.00000000000E+00 0.  1.
         21   -1    0    0  501  503 -0.00000000000E+00 -0.00000000000E+00 -0.61195657702E+03  0.61195657702E+03  0.00000000000E+00 0.  1.
          6    2    1    2  501    0 -0.60714555372E+02  0.29210324430E+03 -0.92981018607E+02  0.35676540444E+03  0.17212065948E+03 0.  0.
         24    2    3    3    0    0 -0.34024511394E+02  0.11559409957E+03 -0.10388653109E+03  0.17785521238E+03  0.79500955957E+02 0.  0.
         -6    2    1    2    0  502  0.60714555372E+02 -0.29210324430E+03 -0.31030338961E+03  0.46386334138E+03  0.17283067815E+03 0.  0.
        -24    2    5    5    0    0 -0.31876909517E+02 -0.11227552961E+03 -0.14338050632E+03  0.20157242406E+03  0.80321483063E+02 0.  0.
          5    1    3    3  501    0 -0.26690043978E+02  0.17650914472E+03  0.10905512483E+02  0.17891019205E+03  0.47000000000E+01 0. -1.
        -13    1    4    4    0    0 -0.22506979988E+02  0.12464329432E+03 -0.79914832322E+02  0.14976279709E+03  0.00000000000E+00 0.  1.
         14    1    4    4    0    0 -0.11517531407E+02 -0.90491947455E+01 -0.23971698768E+02  0.28092415294E+02  0.00000000000E+00 0. -1.
         -5    1    5    5    0  502  0.92591464889E+02 -0.17982771469E+03 -0.16692288329E+03  0.26229091732E+03  0.47000000000E+01 0.  1.
         11    1    6    6    0    0  0.10012045855E+02  0.87860496887E+01 -0.10161321562E+02  0.16753751437E+02  0.00000000000E+00 0. -1.
        -12    1    6    6    0    0 -0.41888955372E+02 -0.12106157930E+03 -0.13321918476E+03  0.18481867263E+03  0.00000000000E+00 0.  1.
</event>
<event>
12    1  0.8297444E-002  0.2229541E+03  0.7818608E-02  0.1131871E+00
         21   -1    0    0  501  502  0.00000000000E+00  0.00000000000E+00  0.64261223531E+03  0.64261223531E+03  0.00000000000E+00 0.  1.
         21   -1    0    0  502  503 -0.00000000000E+00 -0.00000000000E+00 -0.11926625723E+03  0.11926625723E+03  0.00000000000E+00 0. -1.
         -6    2    1    2    0  503  0.14043390999E+03  0.89326553638E+01  0.35333724554E+02  0.22573654496E+03  0.17293652082E+03 0.  0.
        -24    2    3    3    0    0  0.87901009188E+02  0.29882512227E+02 -0.43017632770E+02  0.12899137782E+03  0.78541115798E+02 0.  0.
          6    2    1    2  501    0 -0.14043390999E+03 -0.89326553638E+01  0.48801225353E+03  0.53614194758E+03  0.17172871909E+03 0.  0.
         24    2    5    5    0    0 -0.16768176910E+03 -0.12386165508E+02  0.46030041087E+03  0.49684298091E+03  0.81889478261E+02 0.  0.
          5    1    5    5  501    0  0.27247859107E+02  0.34535101446E+01  0.27711842658E+02  0.39298966675E+02  0.47000000000E+01 0. -1.
        -11    1    6    6    0    0 -0.84283619693E+02  0.15340155162E+02  0.32016764561E+03  0.33143079248E+03  0.00000000000E+00 0.  1.
         12    1    6    6    0    0 -0.83398149402E+02 -0.27726320671E+02  0.14013276526E+03  0.16541218843E+03  0.00000000000E+00 0. -1.
         -5    1    3    3    0  503  0.52532900801E+02 -0.20949856863E+02  0.78351357324E+02  0.96745167133E+02  0.47000000000E+01 0.  1.
         11    1    4    4    0    0  0.41327525744E+02 -0.24066634167E+02 -0.30242307528E+02  0.56584135841E+02  0.00000000000E+00 0. -1.
        -12    1    4    4    0    0  0.46573483444E+02  0.53949146394E+02 -0.12775325242E+02  0.72407241984E+02  0.00000000000E+00 0.  1.
</event>
<event>
12    1  0.8297444E-002  0.1763065E+03  0.7818608E-02  0.1171433E+00
         21   -1    0    0  503  502  0.00000000000E+00  0.00000000000E+00  0.21541922303E+03  0.21541922303E+03  0.00000000000E+00 0. -1.
         21   -1    0    0  501  503 -0.00000000000E+00 -0.00000000000E+00 -0.79194255334E+03  0.79194255334E+03  0.00000000000E+00 0. -1.
          6    2    1    2  501    0  0.25427937543E+02  0.31856283674E+02 -0.74375417235E+03  0.76435941605E+03  0.17150406759E+03 0.  0.
         24    2    3    3    0    0  0.33685309302E+02 -0.46394813544E+02 -0.41537933960E+03  0.42665608591E+03  0.78792392347E+02 0.  0.
         -6    2    1    2    0  502 -0.25427937543E+02 -0.31856283674E+02  0.16723084204E+03  0.24300236031E+03  0.17153014245E+03 0.  0.
        -24    2    5    5    0    0 -0.66577327203E+02 -0.38098924672E+02  0.16566724985E+03  0.20108842878E+03  0.84302134939E+02 0.  0.
          5    1    3    3  501    0 -0.82573717588E+01  0.78251097218E+02 -0.32837483275E+03  0.33770333014E+03  0.47000000000E+01 0. -1.
        -11    1    4    4    0    0 -0.15605147380E+02 -0.46265373888E+01 -0.18880007594E+02  0.24927498063E+02  0.00000000000E+00 0.  1.
         12    1    4    4    0    0  0.49290456681E+02 -0.41768276155E+02 -0.39649933200E+03  0.40172858785E+03  0.00000000000E+00 0. -1.
         -5    1    5    5    0  502  0.41149389660E+02  0.62426409981E+01  0.15635921911E+01  0.41913931533E+02  0.47000000000E+01 0.  1.
         11    1    6    6    0    0 -0.20434970153E+02 -0.63140766129E+01  0.13603276464E+03  0.13770391652E+03  0.00000000000E+00 0. -1.
        -12    1    6    6    0    0 -0.46142357050E+02 -0.31784848059E+02  0.29634485211E+02  0.63384512257E+02  0.00000000000E+00 0.  1.
</event>
<event>
12    1  0.8297444E-002  0.2249901E+03  0.7818608E-02  0.1130859E+00
         21   -1    0    0  501  502  0.00000000000E+00  0.00000000000E+00  0.12353311076E+03  0.12353311076E+03  0.00000000000E+00 0.  1.
         21   -1    0    0  502  503 -0.00000000000E+00 -0.00000000000E+00 -0.40391831547E+03  0.40391831547E+03  0.00000000000E+00 0. -1.
         -6    2    1    2    0  503 -0.13746619118E+03  0.14376901843E+02 -0.13175529927E+03  0.26072975406E+03  0.17752998830E+03 0.  0.
        -24    2    3    3    0    0 -0.42689152574E+02  0.47116094335E+02 -0.75590920310E+01  0.10103839656E+03  0.78162187874E+02 0.  0.
          6    2    1    2  501    0  0.13746619118E+03 -0.14376901843E+02 -0.14862990545E+03  0.26672167217E+03  0.17304898898E+03 0.  0.
         24    2    5    5    0    0  0.11833021596E+03 -0.61451622553E+02 -0.15205470883E+03  0.21557449086E+03  0.74655105034E+02 0.  0.
          5    1    5    5  501    0  0.19135975212E+02  0.47074720710E+02  0.34248033859E+01  0.51147181305E+02  0.47000000000E+01 0. -1.
        -13    1    6    6    0    0  0.20997254238E+02 -0.17870750231E+02  0.26222116741E+01  0.27697010550E+02  0.00000000000E+00 0.  1.
         14    1    6    6    0    0  0.97332961725E+02 -0.43580872322E+02 -0.15467692051E+03  0.18787748031E+03  0.00000000000E+00 0. -1.
         -5    1    3    3    0  503 -0.94777038602E+02 -0.32739192492E+02 -0.12419620724E+03  0.15969135751E+03  0.47000000000E+01 0.  1.
         11    1    4    4    0    0  0.16782248131E+02  0.20380964568E+02 -0.21868817792E+02  0.34282251394E+02  0.00000000000E+00 0. -1.
        -12    1    4    4    0    0 -0.59471400705E+02  0.26735129767E+02  0.14309725761E+02  0.66756145161E+02  0.00000000000E+00 0.  1.
</event>
<event>
12    1  0.8297444E-002  0.1842415E+03  0.7818608E-02  0.1164857E+00
         21   -1    0    0  501  502  0.00000000000E+00  0.00000000000E+00  0.48274415644E+03  0.48274415644E+03  0.00000000000E+00 0. -1.
         21   -1    0    0  502  503 -0.00000000000E+00 -0.00000000000E+00 -0.13349345742E+03  0.13349345742E+03  0.00000000000E+00 0. -1.
         -6    2    1    2    0  503 -0.48776079552E+01 -0.51567609558E+02 -0.41381175087E+02  0.18433692414E+03  0.17200200736E+03 0.  0.
        -24    2    3    3    0    0  0.34528533810E+02  0.27003686370E+02 -0.14699833622E+02  0.92357162589E+02  0.79952120975E+02 0.  0.
          6    2    1    2  501    0  0.48776079552E+01  0.51567609558E+02  0.39063187411E+03  0.43190068972E+03  0.17681045019E+03 0.  0.
         24    2    5    5    0    0 -0.28237299543E+02 -0.33139808008E+02  0.22055221098E+03  0.23897291696E+03  0.81050510889E+02 0.  0.
          5    1    5    5  501    0  0.33114907498E+02  0.84707417567E+02  0.17007966313E+03  0.19292777275E+03  0.47000000000E+01 0. -1.
        -13    1    6    6    0    0  0.70592960099E+00 -0.17432761304E+02  0.15578249220E+01  0.17516458596E+02  0.00000000000E+00 0.  1.
         14    1    6    6    0    0 -0.28943229144E+02 -0.15707046705E+02  0.21899438605E+03  0.22145645837E+03  0.00000000000E+00 0. -1.
         -5    1    3    3    0  503 -0.39406141765E+02 -0.78571295928E+02 -0.26681341465E+02  0.91979761551E+02  0.47000000000E+01 0.  1.
         11    1    4    4    0    0 -0.99966510556E+01 -0.22367004372E+02 -0.66713805333E+01  0.25391400810E+02  0.00000000000E+00 0. -1.
        -12    1    4    4    0    0  0.44525184865E+02  0.49370690742E+02 -0.80284530889E+01  0.66965761779E+02  0.00000000000E+00 0.  1.
</event>
<event>
12    1  0.8297444E-002  0.2115200E+03  0.7818608E-02  0.1140695E+00
         21   -1    0    0  503  502  0.00000000000E+00  0.00000000000E+00  0.11915905335E+04  0.11915905335E+04  0.00000000000E+00 0.  1.
         21   -1    0    0  501  503 -0.00000000000E+00 -0.00000000000E+00 -0.78295159607E+02  0.78295159607E+02  0.00000000000E+00 0. -1.
          6    2    1    2  501    0 -0.17964967368E+02  0.12025374397E+03  0.97983769083E+02  0.23311267459E+03  0.17308089744E+03 0.  0.
         24    2    3    3    0    0  0.16962776334E+02 -0.52103559768E+01  0.46817379690E+02  0.93108113739E+02  0.78500765682E+02 0.  0.
         -6    2    1    2    0  502  0.17964967368E+02 -0.12025374397E+03  0.10153116049E+04  0.10367730186E+04  0.17104658454E+03 0.  0.
        -24    2    5    5    0    0  0.44180172582E+02 -0.54116034196E+02  0.84947118729E+03  0.85625551876E+03  0.81803316332E+02 0.  0.
          5    1    3    3  501    0 -0.34927743702E+02  0.12546409994E+03  0.51166389393E+02  0.14000456085E+03  0.47000000000E+01 0. -1.
        -13    1    4    4    0    0 -0.29823056990E+02 -0.13844609068E+02  0.20290076757E+02  0.38636448378E+02  0.00000000000E+00 0.  1.
         14    1    4    4    0    0  0.46785833324E+02  0.86342530917E+01  0.26527302933E+02  0.54471665360E+02  0.00000000000E+00 0. -1.
         -5    1    5    5    0  502 -0.26215205214E+02 -0.66137709771E+02  0.16584041756E+03  0.18051749980E+03  0.47000000000E+01 0.  1.
         13    1    6    6    0    0 -0.18889749116E+02 -0.12423678743E+02  0.81694561022E+02  0.84765392206E+02  0.00000000000E+00 0. -1.
        -14    1    6    6    0    0  0.63069921698E+02 -0.41692355453E+02  0.76777662627E+03  0.77149012655E+03  0.00000000000E+00 0.  1.
</event>
<event>
12    1  0.8297444E-002  0.1903270E+03  0.7818608E-02  0.1159050E+00
         21   -1    0    0  503  502  0.00000000000E+00  0.00000000000E+00  0.82290629407E+03  0.82290629407E+03  0.00000000000E+00 0. -1.
         21   -1    0    0  501  503 -0.00000000000E+00 -0.00000000000E+00 -0.48305003876E+02  0.48305003876E+02  0.00000000000E+00 0.  1.
          6    2    1    2  501    0  0.23469765764E+02  0.84902887305E+02  0.52635096917E+03  0.55839733415E+03  0.16432562145E+03 0.  0.
         24    2    3    3    0    0 -0.22449309788E+02  0.92868380762E+02  0.28014406676E+03  0.30777423191E+03  0.84355035591E+02 0.  0.
         -6    2    1    2    0  502 -0.23469765764E+02 -0.84902887305E+02  0.24825032103E+03  0.31281396380E+03  0.16871580803E+03 0.  0.
        -24    2    5    5    0    0 -0.75839703729E+02 -0.82936162129E+02  0.15716814126E+03  0.20762588519E+03  0.76004052010E+02 0.  0.
          5    1    3    3  501    0  0.45919075552E+02 -0.79654934566E+01  0.24620690241E+03  0.25062310224E+03  0.47000000000E+01 0. -1.
        -13    1    4    4    0    0 -0.14843683694E+02 -0.13561328564E+02  0.56740372146E+02  0.60197295698E+02  0.00000000000E+00 0.  1.
         14    1    4    4    0    0 -0.76056260940E+01  0.10642970933E+03  0.22340369462E+03  0.24757693621E+03  0.00000000000E+00 0. -1.
         -5    1    5    5    0  502  0.52369937965E+02 -0.19667251756E+01  0.91082179769E+02  0.10518807861E+03  0.47000000000E+01 0.  1.
         11    1    6    6    0    0 -0.11772214324E+02 -0.68002935414E+02  0.68694669671E+02  0.97375263267E+02  0.00000000000E+00 0. -1.
        -12    1    6    6    0    0 -0.64067489405E+02 -0.14933226715E+02  0.88473471588E+02  0.11025062192E+03  0.00000000000E+00 0.  1.
</event>
<event>
12    1  0.8297444E-002  0.2300230E+03  0.7818608E-02  0.1126682E+00
         21   -1    0    0  503  502  0.00000000000E+00  0.00000000000E+00  0.19681851849E+03  0.19681851849E+03  0.00000000000E+00 0. -1.
         21   -1    0    0  501  503 -0.00000000000E+00 -0.00000000000E+00 -0.46800862694E+03  0.46800862694E+03  0.00000000000E+00 0.  1.
          6    2    1    2  501    0 -0.48856358063E+02 -0.14326256719E+03 -0.35260840032E+03  0.42081993222E+03  0.17275886228E+03 0.  0.
         24    2    3    3    0    0 -0.38985409746E+02 -0.64005081489E+01 -0.17591628431E+03  0.19705475913E+03  0.79518616274E+02 0.  0.
         -6    2    1    2    0  502  0.48856358063E+02  0.14326256719E+03  0.81418291872E+02  0.24400721322E+03  0.17320356512E+03 0.  0.
        -24    2    5    5    0    0 -0.16093281520E+02  0.17964303320E+02  0.53856936766E+02  0.10013286211E+03  0.80896913000E+02 0.  0.
          5    1    3    3  501    0 -0.98709483176E+01 -0.13686205904E+03 -0.17669211601E+03  0.22376517309E+03  0.47000000000E+01 0. -1.
        -13    1    4    4    0    0  0.93492409172E+01 -0.24554687151E+01 -0.12971432868E+03  0.13007399701E+03  0.00000000000E+00 0.  1.
         14    1    4    4    0    0 -0.48334650663E+02 -0.39450394338E+01 -0.46201955623E+02  0.66980762121E+02  0.00000000000E+00 0. -1.
         -5    1    5    5    0  502  0.64949639584E+02  0.12529826387E+03  0.27561355106E+02  0.14387435111E+03  0.47000000000E+01 0.  1.
         11    1    6    6    0    0  0.18625434779E+02  0.55783453895E+00  0.58146156195E+02  0.61058934484E+02  0.00000000000E+00 0. -1.
        -12    1    6    6    0    0 -0.34718716300E+02  0.17406468781E+02 -0.42892194285E+01  0.39073927627E+02  0.00000000000E+00 0.  1.
</event>
<event>
12    1  0.8297444E-002  0.1774348E+03  0.7818608E-02  0.1171366E+00
         21   -1    0    0  503  502  0.00000000000E+00  0.00000000000E+00  0.10423455243E+03  0.10423455243E+03  0.00000000000E+00 0. -1.
         21   -1    0    0  501  503 -0.00000000000E+00 -0.00000000000E+00 -0.86855546884E+03  0.86855546884E+03  0.00000000000E+00 0. -1.
          6    2    1    2  501    0  0.36299784491E+02  0.24775676091E+02 -0.77901244266E+03  0.79896401807E+03  0.17190581101E+03 0.  0.
         24    2    3    3    0    0  0.60839475418E+02  0.77981107037E+01 -0.26410265520E+03  0.28316889073E+03  0.81683265691E+02 0.  0.
         -6    2    1    2    0  502 -0.36299784491E+02 -0.24775676091E+02  0.14691526256E+02  0.17382600319E+03  0.16753545882E+03 0.  0.
        -24    2    5    5    0    0  0.12617012908E+02 -0.55279861461E+01 -0.45978586109E+02  0.93412825354E+02  0.80138492090E+02 0.  0.
          5    1    3    3  501    0 -0.24539690928E+02  0.16977565387E+02 -0.51490978747E+03  0.51579512734E+03  0.47000000000E+01 0. -1.
        -11    1    4    4    0    0  0.10219825390E+02  0.20973631439E+02 -0.13065463008E+02  0.26740313580E+02  0.00000000000E+00 0.  1.
         12    1    4    4    0    0  0.50619650029E+02 -0.13175520736E+02 -0.25103719219E+03  0.25642857715E+03  0.00000000000E+00 0. -1.
         -5    1    5    5    0  502 -0.48916797399E+02 -0.19247689945E+02  0.60670112365E+02  0.80413177840E+02  0.47000000000E+01 0.  1.
         11    1    6    6    0    0  0.21097136005E+02 -0.37491394252E+02 -0.92732056980E+01  0.44007796292E+02  0.00000000000E+00 0. -1.
        -12    1    6    6    0    0 -0.84801230975E+01  0.31963408106E+02 -0.36705380412E+02  0.49405029062E+02  0.00000000000E+00 0.  1.
</event>
<event>
12    1  0.8297444E-002  0.3154282E+03  0.7818608E-02  0.1077822E+00
         21   -1    0    0  501  502  0.00000000000E+00  0.00000000000E+00  0.19385713468E+03  0.19385713468E+03  0.00000000000E+00 0. -1.
         21   -1    0    0  502  503 -0.00000000000E+00 -0.00000000000E+00 -0.57851313052E+03  0.57851313052E+03  0.00000000000E+00 0. -1.
         -6    2    1    2    0  503  0.11126907019E+03  0.23869416557E+03 -0.32284300298E+03  0.45135636104E+03  0.17360659383E+03 0.  0.
        -24    2    3    3    0    0  0.12363761499E+03  0.13246633688E+03 -0.26157542125E+03  0.32801480657E+03  0.79614207781E+02 0.  0.
          6    2    1    2  501    0 -0.11126907019E+03 -0.23869416557E+03 -0.61812992865E+02  0.32101390415E+03  0.17283914462E+03 0.  0.
         24    2    5    5    0    0  0.35536618151E+01 -0.52875846733E+02 -0.23992412475E+02  0.99281647362E+02  0.80453253300E+02 0.  0.
          5    1    5    5  501    0 -0.11482273200E+03 -0.18581831884E+03 -0.37820580390E+02  0.22173225679E+03  0.47000000000E+01 0. -1.
        -11    1    6    6    0    0  0.12345547203E+02 -0.72242234538E+02 -0.10357586176E+02  0.74017785553E+02  0.00000000000E+00 0.  1.
         12    1    6    6    0    0 -0.87918853874E+01  0.19366387805E+02 -0.13634826299E+02  0.25263861809E+02  0.00000000000E+00 0. -1.
         -5    1    3    3    0  503 -0.12368544798E+02  0.10622782869E+03 -0.61267581725E+02  0.12334155447E+03  0.47000000000E+01 0.  1.
         13    1    4    4    0    0  0.76096677339E+02  0.10157806748E+03 -0.11660538632E+03  0.17235319613E+03  0.00000000000E+00 0. -1.
        -14    1    4    4    0    0  0.47540937647E+02  0.30888269397E+02 -0.14497003493E+03  0.15566161044E+03  0.00000000000E+00 0.  1.
</event>
<event>
12    1  0.8297444E-002  0.2036722E+03  0.7818608E-02  0.1147057E+00
         21   -1    0    0  503  502  0.00000000000E+00  0.00000000000E+00  0.46570383085E+03  0.46570383085E+03  0.00000000000E+00 0. -1.
         21   -1    0    0  501  503 -0.00000000000E+00 -0.00000000000E+00 -0.14155304266E+03  0.14155304266E+03  0.00000000000E+00 0. -1.
          6    2    1    2  501    0  0.91298490537E+02 -0.58218760686E+02 -0.23743154086E+02  0.20505146071E+03  0.17250369765E+03 0.  0.
         24    2    3    3    0    0  0.40863587059E+02 -0.99435742622E+02  0.50781920287E+01  0.13367023713E+03  0.79275750399E+02 0.  0.
         -6    2    1    2    0  502 -0.91298490537E+02  0.58218760686E+02  0.34789394227E+03  0.40220541279E+03  0.17033543536E+03 0.  0.
        -24    2    5    5    0    0 -0.13475896384E+02  0.36104311163E+02  0.28818775120E+03  0.30154596569E+03  0.79954164470E+02 0.  0.
          5    1    3    3  501    0  0.50434903478E+02  0.41216981936E+02 -0.28821346115E+02  0.71381223586E+02  0.47000000000E+01 0. -1.
        -13    1    4    4    0    0  0.13747894927E+02  0.87179723362E+01  0.14461809703E+02  0.21775022307E+02  0.00000000000E+00 0.  1.
         14    1    4    4    0    0  0.27115692133E+02 -0.10815371496E+03 -0.93836176747E+01  0.11189521482E+03  0.00000000000E+00 0. -1.
         -5    1    5    5    0  502 -0.77822594153E+02  0.22114449523E+02  0.59706191076E+02  0.10065944710E+03  0.47000000000E+01 0.  1.
         13    1    6    6    0    0 -0.14693562208E+02 -0.14098516726E+02  0.19164275450E+03  0.19272159790E+03  0.00000000000E+00 0. -1.
        -14    1    6    6    0    0  0.12176658243E+01  0.50202827889E+02  0.96544996701E+02  0.10882436780E+03  0.00000000000E+00 0.  1.
</event>
<event>
12    1  0.8297444E-002  0.2027005E+03  0.7818608E-02  0.1147496E+00
         21   -1    0    0  501  502  0.00000000000E+00  0.00000000000E+00  0.21988021097E+03  0.21988021097E+03  0.00000000000E+00 0. -1.
         21   -1    0    0  502  503 -0.00000000000E+00 -0.00000000000E+00 -0.42080379336E+03  0.42080379336E+03  0.00000000000E+00 0.  1.
         -6    2    1    2    0  503  0.10565163477E+03  0.17181551885E+02 -0.33935656037E+03  0.39528516392E+03  0.17213370412E+03 0.  0.
        -24    2    3    3    0    0  0.93640649296E+02  0.72295519982E+02 -0.27351926962E+03  0.30846090403E+03  0.79624902233E+02 0.  0.
          6    2    1    2  501    0 -0.10565163477E+03 -0.17181551885E+02  0.13843297798E+03  0.24539884040E+03  0.17204484248E+03 0.  0.
         24    2    5    5    0    0 -0.49272128574E+01 -0.71576382998E+02  0.47017279015E+02  0.98827605711E+02  0.49079681081E+02 0.  0.
          5    1    5    5  501    0 -0.10072442191E+03  0.54394831112E+02  0.91415698970E+02  0.14657123469E+03  0.47000000000E+01 0. -1.
        -13    1    6    6    0    0 -0.26888713476E+02 -0.35486489283E+02  0.21154608807E+02  0.49293116231E+02  0.00000000000E+00 0.  1.
         14    1    6    6    0    0  0.21961500618E+02 -0.36089893715E+02  0.25862670208E+02  0.49534489480E+02  0.00000000000E+00 0. -1.
         -5    1    3    3    0  503  0.12010985473E+02 -0.55113968097E+02 -0.65837290758E+02  0.86824259891E+02  0.47000000000E+01 0.  1.
         13    1    4    4    0    0  0.35647487436E+02 -0.11963660837E+02 -0.49221648177E+02  0.61940642476E+02  0.00000000000E+00 0. -1.
        -14    1    4    4    0    0  0.57993161859E+02  0.84259180819E+02 -0.22429762144E+03  0.24652026156E+03  0.00000000000E+00 0.  1.
</event>
<event>
12    1  0.8297444E-002  0.1824577E+03  0.7818608E-02  0.1165700E+00
         21   -1    0    0  501  502  0.00000000000E+00  0.00000000000E+00  0.11309993943E+03  0.11309993943E+03  0.00000000000E+00 0. -1.
         21   -1    0    0  502  503 -0.00000000000E+00 -0.00000000000E+00 -0.29522553397E+03  0.29522553397E+03  0.00000000000E+00 0. -1.
         -6    2    1    2    0  503  0.48680419653E+02 -0.30148943774E+02 -0.10995241058E+03  0.21211188235E+03  0.17211384597E+03 0.  0.
        -24    2    3    3    0    0  0.61245101211E+02 -0.76167206313E+02 -0.49955945282E+02  0.13531853916E+03  0.79139780336E+02 0.  0.
          6    2    1    2  501    0 -0.48680419653E+02  0.30148943774E+02 -0.72173183956E+02  0.19621359104E+03  0.17323989944E+03 0.  0.
         24    2    5    5    0    0 -0.86843460218E+02  0.49333661386E+02 -0.81341492616E+02  0.15227478201E+03  0.81213139870E+02 0.  0.
          5    1    5    5  501    0  0.38163040565E+02 -0.19184717612E+02  0.91683086605E+01  0.43938809027E+02  0.47000000000E+01 0. -1.
        -11    1    6    6    0    0  0.11525473309E+02  0.82008504237E+01  0.50767516314E+01  0.15028768738E+02  0.00000000000E+00 0.  1.
         12    1    6    6    0    0 -0.98368933527E+02  0.41132810962E+02 -0.86418244248E+02  0.13724601327E+03  0.00000000000E+00 0. -1.
         -5    1    3    3    0  503 -0.12564681558E+02  0.46018262539E+02 -0.59996465302E+02  0.76793343191E+02  0.47000000000E+01 0.  1.
         13    1    4    4    0    0  0.67996222270E+02 -0.27552362136E+02 -0.14539143143E+02  0.74793085146E+02  0.00000000000E+00 0. -1.
        -14    1    4    4    0    0 -0.67511210595E+01 -0.48614844177E+02 -0.35416802139E+02  0.60525454015E+02  0.00000000000E+00 0.  1.
</event>
<event>
12    1  0.8297444E-002  0.2903608E+03  0.7818608E-02  0.1090569E+00
         21   -1    0    0  503  502  0.00000000000E+00  0.00000000000E+00  0.89244329866E+03  0.89244329866E+03  0.00000000000E+00 0.  1.
         21   -1    0    0  501  503 -0.00000000000E+00 -0.00000000000E+00 -0.11546270966E+03  0.11546270966E+03  0.00000000000E+00 0. -1.
          6    2    1    2  501    0 -0.18358065926E+03 -0.14554556932E+03  0.60678418544E+03  0.67134072448E+03  0.16621055755E+03 0.  0.
         24    2    3    3    0    0 -0.10175357445E+03 -0.11252321683E+02  0.26657593342E+03  0.29651530790E+03  0.79863601751E+02 0.  0.
         -6    2    1    2    0  502  0.18358065926E+03  0.14554556932E+03  0.17019640356E+03  0.33656528384E+03  0.17153426275E+03 0.  0.
        -24    2    5    5    0    0  0.13877458785E+03  0.41926100422E+02  0.14561401172E+03  0.22093240634E+03  0.81188075683E+02 0.  0.
          5    1    3    3  501    0 -0.81827084808E+02 -0.13429324764E+03  0.34020825202E+03  0.37482541658E+03  0.47000000000E+01 0. -1.
        -11    1    4    4    0    0 -0.15648663732E+02  0.15375356245E+02  0.13658655015E+03  0.13833715314E+03  0.00000000000E+00 0.  1.
         12    1    4    4    0    0 -0.86104910719E+02 -0.26627677928E+02  0.12998938327E+03  0.15817815476E+03  0.00000000000E+00 0. -1.
         -5    1    5    5    0  502  0.44806071406E+02  0.10361946890E+03  0.24582391844E+02  0.11563287750E+03  0.47000000000E+01 0.  1.
         13    1    6    6    0    0  0.16437471626E+02  0.14477866159E+02 -0.73918479672E+01  0.23117925909E+02  0.00000000000E+00 0. -1.
        -14    1    6    6    0    0  0.12233711623E+03  0.27448234263E+02  0.15300585969E+03  0.19781448043E+03  0.00000000000E+00 0.  1.
</event>
<event>
12    1  0.8297444E-002  0.1960709E+03  0.7818608E-02  0.1153596E+00
         21   -1    0    0  503  502  0.00000000000E+00  0.00000000000E+00  0.31198702118E+03  0.31198702118E+03  0.00000000000E+00 0.  1.
         21   -1    0    0  501  503 -0.00000000000E+00 -0.00000000000E+00 -0.16213643757E+03  0.16213643757E+03  0.00000000000E+00 0.  1.
          6    2    1    2  501    0  0.53500614958E+01  0.88567425434E+02 -0.43002284227E+02  0.20073113458E+03  0.17484558884E+03 0.  0.
         24    2    3    3    0    0  0.28495573774E+01  0.63031755600E+02  0.44088143521E+02  0.10981823363E+03  0.78327248430E+02 0.  0.
         -6    2    1    2    0  502 -0.53500614958E+01 -0.88567425434E+02  0.19285286784E+03  0.27339232416E+03  0.17227397444E+03 0.  0.
        -24    2    5    5    0    0  0.52574415712E+02 -0.16198906222E+02  0.73452955364E+02  0.12216112126E+03  0.80632060276E+02 0.  0.
          5    1    3    3  501    0  0.25005041184E+01  0.25535669834E+02 -0.87090427749E+02  0.90912900956E+02  0.47000000000E+01 0. -1.
        -11    1    4    4    0    0 -0.32268568533E+02  0.46195280217E+02  0.83585360904E+01  0.56966038612E+02  0.00000000000E+00 0.  1.
         12    1    4    4    0    0  0.35118125911E+02  0.16836475383E+02  0.35729607431E+02  0.52852195016E+02  0.00000000000E+00 0. -1.
         -5    1    5    5    0  502 -0.57924477207E+02 -0.72368519212E+02  0.11939991247E+03  0.15123120290E+03  0.47000000000E+01 0.  1.
         11    1    6    6    0    0 -0.12482218557E+01  0.22818644327E+02 -0.32007567704E+00  0.22855000222E+02  0.00000000000E+00 0. -1.
        -12    1    6    6    0    0  0.53822637567E+02 -0.39017550549E+02  0.73773031041E+02  0.99306121033E+02  0.00000000000E+00 0.  1.
</event>
<event>
12    1  0.8297444E-002  0.1890227E+03  0.7818608E-02  0.1159558E+00
         21   -1    0    0  503  502  0.00000000000E+00  0.00000000000E+00  0.26172167493E+02  0.26172167493E+02  0.00000000000E+00 0.  1.
         21   -1    0    0  501  503 -0.00000000000E+00 -0.00000000000E+00 -0.18770012147E+04  0.18770012147E+04  0.00000000000E+00 0.  1.
          6    2    1    2  501    0 -0.23281202340E+02  0.73613189317E+02 -0.14239241500E+04  0.14362929307E+04  0.17151233720E+03 0.  0.
         24    2    3    3    0    0  0.49459658869E+02  0.15727805453E+02 -0.78963805517E+03  0.79521345774E+03  0.78374507888E+02 0.  0.
         -6    2    1    2    0  502  0.23281202340E+02 -0.73613189317E+02 -0.42690489717E+03  0.46688045146E+03  0.17253593451E+03 0.  0.
        -24    2    5    5    0    0 -0.61027954475E+01 -0.72575652320E+01 -0.35307277892E+03  0.36324763880E+03  0.84844230869E+02 0.  0.
          5    1    3    3  501    0 -0.72740861209E+02  0.57885383864E+02 -0.63428609484E+03  0.64107947297E+03  0.47000000000E+01 0. -1.
        -11    1    4    4    0    0 -0.10643200738E+02  0.12784559194E+02 -0.42250245624E+02  0.45407113221E+02  0.00000000000E+00 0.  1.
         12    1    4    4    0    0  0.60102859607E+02  0.29432462598E+01 -0.74738780955E+03  0.74980634452E+03  0.00000000000E+00 0. -1.
         -5    1    5    5    0  502  0.29383997788E+02 -0.66355624085E+02 -0.73832118252E+02  0.10363281266E+03  0.47000000000E+01 0.  1.
         11    1    6    6    0    0 -0.33093454946E+02  0.22014209817E+02 -0.24225638201E+03  0.24549532952E+03  0.00000000000E+00 0. -1.
        -12    1    6    6    0    0  0.26990659498E+02 -0.29271775049E+02 -0.11081639691E+03  0.11775230927E+03  0.00000000000E+00 0.  1.
</event>
<event>
12    1  0.8297444E-002  0.1833461E+03  0.7818608E-02  0.1165876E+00
         21   -1    0    0  501  502  0.00000000000E+00  0.00000000000E+00  0.55901215576E+03  0.55901215576E+03  0.00000000000E+00 0.  1.
         21   -1    0    0  502  503 -0.00000000000E+00 -0.00000000000E+00 -0.10382850332E+03  0.10382850332E+03  0.00000000000E+00 0.  1.
         -6    2    1    2    0  503  0.49265539533E+02  0.26967848539E+02  0.10279202480E+02  0.18363401017E+03  0.17453202986E+03 0.  0.
        -24    2    3    3    0    0 -0.86278268471E+01  0.70099487584E+02  0.26145917575E+02  0.10956766960E+03  0.79580699049E+02 0.  0.
          6    2    1    2  501    0 -0.49265539533E+02 -0.26967848539E+02  0.44490444996E+03  0.47920664891E+03  0.16895172247E+03 0.  0.
         24    2    5    5    0    0 -0.88270647678E+02 -0.31330421472E+01  0.37535924593E+03  0.39585125400E+03  0.89454617514E+02 0.  0.
          5    1    5    5  501    0  0.39005108145E+02 -0.23834806392E+02  0.69545204033E+02  0.83355394913E+02  0.47000000000E+01 0. -1.
        -11    1    6    6    0    0 -0.55101166946E+02  0.34783745530E+02  0.28542305502E+03  0.29276674656E+03  0.00000000000E+00 0.  1.
         12    1    6    6    0    0 -0.33169480731E+02 -0.37916787677E+02  0.89936190905E+02  0.10308450744E+03  0.00000000000E+00 0. -1.
         -5    1    3    3    0  503  0.57893366380E+02 -0.43131639045E+02 -0.15866715095E+02  0.74066340570E+02  0.47000000000E+01 0.  1.
         11    1    4    4    0    0 -0.39076424162E+02  0.16446809292E+02 -0.42384845895E+00  0.42398633335E+02  0.00000000000E+00 0. -1.
        -12    1    4    4    0    0  0.30448597314E+02  0.53652678292E+02  0.26569766034E+02  0.67169036269E+02  0.00000000000E+00 0.  1.
</event>
<event>
12    1  0.8297444E-002  0.1942544E+03  0.7818608E-02  0.1154947E+00
         21   -1    0    0  503  502  0.00000000000E+00  0.00000000000E+00  0.34086444622E+03  0.34086444622E+03  0.00000000000E+00 0.  1.
         21   -1    0    0  501  503 -0.00000000000E+00 -0.00000000000E+00 -0.11005026994E+03  0.11005026994E+03  0.00000000000E+00 0.  1.
          6    2    1    2  501    0 -0.30792472433E+02 -0.82922720712E+02  0.11071630857E+03  0.22253287820E+03  0.17157630061E+03 0.  0.
         24    2    3    3    0    0 -0.73816521309E+02 -0.25433163574E+02  0.31513280679E+02  0.11552200217E+03  0.79098176336E+02 0.  0.
         -6    2    1    2    0  502  0.30792472433E+02  0.82922720712E+02  0.12009786771E+03  0.22838183796E+03  0.17294626944E+03 0.  0.
        -24    2    5    5    0    0 -0.32611756177E+02  0.86974942868E+02  0.10750310526E+03  0.16344159812E+03  0.80796479052E+02 0.  0.
          5    1    3    3  501    0  0.43024048876E+02 -0.57489557137E+02  0.79203027889E+02  0.10701087603E+03  0.47000000000E+01 0. -1.
        -11    1    4    4    0    0 -0.65273643589E+02  0.10444165538E+02  0.40550569021E+02  0.77550485422E+02  0.00000000000E+00 0.  1.
         12    1    4    4    0    0 -0.85428777198E+01 -0.35877329112E+02 -0.90372883419E+01  0.37971516753E+02  0.00000000000E+00 0. -1.
         -5    1    5    5    0  502  0.63404228610E+02 -0.40522221563E+01  0.12594762453E+02  0.64940239846E+02  0.47000000000E+01 0.  1.
         13    1    6    6    0    0 -0.20955869355E+02  0.10197300248E+03  0.90086480210E+02  0.13767067811E+03  0.00000000000E+00 0. -1.
        -14    1    6    6    0    0 -0.11655886822E+02 -0.14998059614E+02  0.17416625049E+02  0.25770920004E+02  0.00000000000E+00 0.  1.
</event>
<event>
12    1  0.8297444E-002  0.4523470E+03  0.7818608E-02  0.1027134E+00
         21   -1    0    0  501  502  0.00000000000E+00  0.00000000000E+00  0.10943477743E+03  0.10943477743E+03  0.00000000000E+00 0. -1.
         21   -1    0    0  502  503 -0.00000000000E+00 -0.00000000000E+00 -0.29384164681E+04  0.29384164681E+04  0.00000000000E+00 0. -1.
         -6    2    1    2    0  503  0.41362459832E+03  0.61810788873E+02 -0.23375834590E+04  0.23809481718E+04  0.17237136380E+03 0.  0.
        -24    2    3    3    0    0  0.24035827501E+03 -0.14027846908E+02 -0.15695660949E+04  0.15899706253E+04  0.80622467612E+02 0.  0.
          6    2    1    2  501    0 -0.41362459832E+03 -0.61810788873E+02 -0.49139823172E+03  0.66690307378E+03  0.16846841163E+03 0.  0.
         24    2    5    5    0    0 -0.14639364683E+03 -0.55382317562E+02 -0.13214054352E+03  0.21908404425E+03  0.77707105663E+02 0.  0.
          5    1    5    5  501    0 -0.26723095149E+03 -0.64284713107E+01 -0.35925768820E+03  0.44781902953E+03  0.47000000000E+01 0. -1.
        -13    1    6    6    0    0 -0.53682440251E+02  0.11809725048E+02 -0.19111885616E+02  0.58193970210E+02  0.00000000000E+00 0.  1.
         14    1    6    6    0    0 -0.92711206579E+02 -0.67192042611E+02 -0.11302865790E+03  0.16089007404E+03  0.00000000000E+00 0. -1.
         -5    1    3    3    0  503  0.17326632331E+03  0.75838635781E+02 -0.76801736410E+03  0.79097754648E+03  0.47000000000E+01 0.  1.
         13    1    4    4    0    0  0.45013483706E+02 -0.85691205392E+00 -0.14003750891E+03  0.14709674338E+03  0.00000000000E+00 0. -1.
        -14    1    4    4    0    0  0.19534479130E+03 -0.13170934854E+02 -0.14295285860E+04  0.14428738819E+04  0.00000000000E+00 0.  1.
</event>
<event>
12    1  0.8297444E-002  0.1762981E+03  0.7818608E-02  0.1171704E+00
         21   -1    0    0  501  502  0.00000000000E+00  0.00000000000E+00  0.52967902257E+02  0.52967902257E+02  0.00000000000E+00 0. -1.
         21   -1    0    0  502  503 -0.00000000000E+00 -0.00000000000E+00 -0.58369020691E+03  0.58369020691E+03  0.00000000000E+00 0. -1.
         -6    2    1    2    0  503  0.27290294333E+02 -0.22640743075E+02 -0.25531479866E+03  0.30965607320E+03  0.17159217303E+03 0.  0.
        -24    2    3    3    0    0  0.51692225630E+02 -0.65882719918E+02 -0.91219681990E+02  0.13814916335E+03  0.61249832472E+02 0.  0.
          6    2    1    2  501    0 -0.27290294333E+02  0.22640743075E+02 -0.27540750599E+03  0.32700203596E+03  0.17269532059E+03 0.  0.
         24    2    5    5    0    0  0.23210897217E+02  0.61950092430E+02 -0.11255662564E+03  0.15196462703E+03  0.77766922216E+02 0.  0.
          5    1    5    5  501    0 -0.50501191550E+02 -0.39309349355E+02 -0.16285088035E+03  0.17503740894E+03  0.47000000000E+01 0. -1.
        -13    1    6    6    0    0  0.39128581550E+02  0.32046618199E+01 -0.59139387005E+02  0.70984384528E+02  0.00000000000E+00 0.  1.
         14    1    6    6    0    0 -0.15917684333E+02  0.58745430610E+02 -0.53417238633E+02  0.80980242499E+02  0.00000000000E+00 0. -1.
         -5    1    3    3    0  503 -0.24401931296E+02  0.43241976843E+02 -0.16409511667E+03  0.17150690985E+03  0.47000000000E+01 0.  1.
         11    1    4    4    0    0  0.25340025764E+02 -0.29094548586E+02 -0.83849343108E+02  0.92300173363E+02  0.00000000000E+00 0. -1.
        -12    1    4    4    0    0  0.26352199866E+02 -0.36788171331E+02 -0.73703388820E+01  0.45848989988E+02  0.00000000000E+00 0.  1.
</event>
<event>
12    1  0.8297444E-002  0.2233222E+03  0.7818608E-02  0.1132542E+00
         21   -1    0    0  503  502  0.00000000000E+00  0.00000000000E+00  0.18887725139E+03  0.18887725139E+03  0.00000000000E+00 0.  1.
         21   -1    0    0  501  503 -0.00000000000E+00 -0.00000000000E+00 -0.43384745859E+03  0.43384745859E+03  0.00000000000E+00 0. -1.
          6    2    1    2  501    0  0.11868925135E+03 -0.79105254265E+02 -0.32027247772E+03  0.38704855331E+03  0.16397360458E+03 0.  0.
         24    2    3    3    0    0  0.12689116456E+03 -0.10648286498E+03 -0.22802193152E+03  0.29035802523E+03  0.69812702149E+02 0.  0.
         -6    2    1    2    0  502 -0.11868925135E+03  0.79105254265E+02  0.75302270515E+02  0.23567615667E+03  0.17183724637E+03 0.  0.
        -24    2    5    5    0    0 -0.11227272081E+03  0.16053821480E+02  0.22801937297E+01  0.13887239260E+03  0.80109007747E+02 0.  0.
          5    1    3    3  501    0 -0.82019132005E+01  0.27377610714E+02 -0.92250546194E+02  0.96690528086E+02  0.47000000000E+01 0. -1.
        -11    1    4    4    0    0  0.39639927720E+01  0.82761214334E+01 -0.34597955797E+01  0.98070184118E+01  0.00000000000E+00 0.  1.
         12    1    4    4    0    0  0.12292717178E+03 -0.11475898641E+03 -0.22456213594E+03  0.28055100681E+03  0.00000000000E+00 0. -1.
         -5    1    5    5    0  502 -0.64165305498E+01  0.63051432785E+02  0.73022076786E+02  0.96803764073E+02  0.47000000000E+01 0.  1.
         11    1    6    6    0    0  0.41641024116E+00 -0.33940150970E+01 -0.21752284023E+02  0.22019414075E+02  0.00000000000E+00 0. -1.
        -12    1    6    6    0    0 -0.11268913105E+03  0.19447836577E+02  0.24032477753E+02  0.11685297853E+03  0.00000000000E+00 0.  1.
</event>
<event>
12    1  0.8297444E-002  0.1742851E+03  0.7818608E-02  0.1173491E+00
         21   -1    0    0  501  502  0.00000000000E+00  0.00000000000E+00  0.91949952866E+02  0.91949952866E+02  0.00000000000E+00 0. -1.
         21   -1    0    0  502  503 -0.00000000000E+00 -0.00000000000E+00 -0.33888449059E+03  0.33888449059E+03  0.00000000000E+00 0. -1.
         -6    2    1    2    0  503 -0.17830508373E+02 -0.17624126928E+02 -0.15830871953E+03  0.23545050401E+03  0.17247246819E+03 0.  0.
        -24    2    3    3    0    0 -0.22162404370E+02  0.34032770266E+02 -0.15712806578E+03  0.18338627163E+03  0.85392587189E+02 0.  0.
          6    2    1    2  501    0  0.17830508373E+02  0.17624126928E+02 -0.88625818198E+02  0.19538393945E+03  0.17231311982E+03 0.  0.
         24    2    5    5    0    0 -0.54490053483E+01 -0.48827080064E+02 -0.82243734436E+02  0.12452831396E+03  0.79558115344E+02 0.  0.
          5    1    5    5  501    0  0.23279513722E+02  0.66451206992E+02 -0.63820837624E+01  0.70855625486E+02  0.47000000000E+01 0. -1.
        -11    1    6    6    0    0 -0.11019124781E+02 -0.28904696322E+02 -0.95213353894E+02  0.10011236357E+03  0.00000000000E+00 0.  1.
         12    1    6    6    0    0  0.55701194330E+01 -0.19922383742E+02  0.12969619458E+02  0.24415950388E+02  0.00000000000E+00 0. -1.
         -5    1    3    3    0  503  0.43318959971E+01 -0.51656897194E+02 -0.11806537526E+01  0.52064232386E+02  0.47000000000E+01 0.  1.
         11    1    4    4    0    0 -0.41982461246E+02  0.16057670667E+01 -0.13019498403E+03  0.13680584566E+03  0.00000000000E+00 0. -1.
        -12    1    4    4    0    0  0.19820056875E+02  0.32427003199E+02 -0.26933081752E+02  0.46580425971E+02  0.00000000000E+00 0.  1.
</event>
<event>
12    1  0.8297444E-002  0.1866154E+03  0.7818608E-02  0.1164084E+00
         21   -1    0    0  503  502  0.00000000000E+00  0.00000000000E+00  0.26701845043E+03  0.26701845043E+03  0.00000000000E+00 0. -1.
         21   -1    0    0  501  503 -0.00000000000E+00 -0.00000000000E+00 -0.32877477370E+03  0.32877477370E+03  0.00000000000E+00 0. -1.
          6    2    1    2  501    0 -0.52334052309E+02 -0.51538809112E+02 -0.26680028237E+03  0.32558825846E+03  0.17155238704E+03 0.  0.
         24    2    3    3    0    0  0.32769242588E+02 -0.53454342407E+02 -0.15618192035E+03  0.18592884386E+03  0.79028809645E+02 0.  0.
         -6    2    1    2    0  502  0.52334052309E+02  0.51538809112E+02  0.20504395911E+03  0.27020496567E+03  0.15991434092E+03 0.  0.
        -24    2    5    5    0    0  0.64434993759E+02  0.21074606826E+02  0.60633327663E+02  0.12204619651E+03  0.81380994010E+02 0.  0.
          5    1    3    3  501    0 -0.85103294897E+02  0.19155332953E+01 -0.11061836202E+03  0.13965941460E+03  0.47000000000E+01 0. -1.
        -11    1    4    4    0    0 -0.79749943871E+01  0.11797119813E+02 -0.30538789209E+01  0.14563610398E+02  0.00000000000E+00 0.  1.
         12    1    4    4    0    0  0.40744236975E+02 -0.65251462220E+02 -0.15312804142E+03  0.17136523346E+03  0.00000000000E+00 0. -1.
         -5    1    5    5    0  502 -0.12100941450E+02  0.30464202286E+02  0.14441063144E+03  0.14815876916E+03  0.47000000000E+01 0.  1.
         11    1    6    6    0    0  0.48337008401E+02  0.42202908824E+02  0.68972295404E+02  0.94205782347E+02  0.00000000000E+00 0. -1.
        -12    1    6    6    0    0  0.16097985358E+02 -0.21128301998E+02 -0.83389677411E+01  0.27840414165E+02  0.00000000000E+00 0.  1.
</event>
<event>
12    1  0.8297444E-002  0.1844960E+03  0.7818608E-02  0.1163524E+00
         21   -1    0    0  503  502  0.00000000000E+00  0.00000000000E+00  0.16965902134E+03  0.16965902134E+03  0.00000000000E+00 0. -1.
         21   -1    0    0  501  503 -0.00000000000E+00 -0.00000000000E+00 -0.33446401080E+03  0.33446401080E+03  0.00000000000E+00 0. -1.
          6    2    1    2  501    0 -0.60819881047E+02  0.25274665914E+02 -0.24185811982E+03  0.30419423477E+03  0.17233953604E+03 0.  0.
         24    2    3    3    0    0 -0.45651798474E+02 -0.12266037630E+02 -0.46406090531E+02  0.10453712645E+03  0.80869915207E+02 0.  0.
         -6    2    1    2    0  502  0.60819881047E+02 -0.25274665914E+02  0.77053130352E+02  0.19992879737E+03  0.17232664464E+03 0.  0.
        -24    2    5    5    0    0  0.62503354936E+02 -0.14446523147E+02  0.11886798501E+03  0.15644713652E+03  0.78935019186E+02 0.  0.
          5    1    3    3  501    0 -0.15168082573E+02  0.37540703544E+02 -0.19545202928E+03  0.19965710832E+03  0.47000000000E+01 0. -1.
        -13    1    4    4    0    0  0.15562515601E+02 -0.26390656556E+02 -0.11948496629E+02  0.32885030287E+02  0.00000000000E+00 0.  1.
         14    1    4    4    0    0 -0.61214314075E+02  0.14124618926E+02 -0.34457593902E+02  0.71652096166E+02  0.00000000000E+00 0. -1.
         -5    1    5    5    0  502 -0.16834738883E+01 -0.10828142766E+02 -0.41814854659E+02  0.43481660850E+02  0.47000000000E+01 0.  1.
         13    1    6    6    0    0 -0.34780038368E+01  0.11958137626E+02  0.67797384856E+02  0.68931697784E+02  0.00000000000E+00 0. -1.
        -14    1    6    6    0    0  0.65981358772E+02 -0.26404660773E+02  0.51070600156E+02  0.87515438731E+02  0.00000000000E+00 0.  1.
</event>
<event>
12    1  0.8297444E-002  0.2256756E+03  0.7818608E-02  0.1130176E+00
         21   -1    0    0  501  502  0.00000000000E+00  0.00000000000E+00  0.94110256816E+02  0.94110256816E+02  0.00000000000E+00 0.  1.
         21   -1    0    0  502  503 -0.00000000000E+00 -0.00000000000E+00 -0.80931191389E+03  0.80931191389E+03  0.00000000000E+00 0. -1.
         -6    2    1    2    0  503  0.14512940456E+03 -0.84077865022E+01 -0.62181563788E+03  0.66150144552E+03  0.17261587405E+03 0.  0.
        -24    2    3    3    0    0  0.48897484389E+02 -0.15671357000E+02 -0.48203596747E+03  0.49157855661E+03  0.81573573994E+02 0.  0.
          6    2    1    2  501    0 -0.14512940456E+03  0.84077865022E+01 -0.93386019190E+02  0.24192072518E+03  0.16932647091E+03 0.  0.
         24    2    5    5    0    0 -0.70102777069E+02 -0.53893988661E+02 -0.17501922086E+02  0.11826397359E+03  0.76557748177E+02 0.  0.
          5    1    5    5  501    0 -0.75026627488E+02  0.62301775163E+02 -0.75884097104E+02  0.12365675159E+03  0.47000000000E+01 0. -1.
        -13    1    6    6    0    0 -0.59546391468E+02  0.23959231246E+01 -0.11319035353E+02  0.60659984716E+02  0.00000000000E+00 0.  1.
         14    1    6    6    0    0 -0.10556385601E+02 -0.56289911785E+02 -0.61828867329E+01  0.57603988873E+02  0.00000000000E+00 0. -1.
         -5    1    3    3    0  503  0.96231920169E+02  0.72635704979E+01 -0.13977967041E+03  0.16992288891E+03  0.47000000000E+01 0.  1.
         13    1    4    4    0    0  0.63498900743E+02 -0.26619253851E+02 -0.44494701998E+03  0.45024276303E+03  0.00000000000E+00 0. -1.
        -14    1    4    4    0    0 -0.14601416354E+02  0.10947896851E+02 -0.37088947487E+02  0.41335793578E+02  0.00000000000E+00 0.  1.
</event>
<event>
12    1  0.8297444E-002  0.3330161E+03  0.7818608E-02  0.1069882E+00
         21   -1    0    0  503  502  0.00000000000E+00  0.00000000000E+00  0.41253617808E+03  0.41253617808E+03  0.00000000000E+00 0.  1.
         21   -1    0    0  501  503 -0.00000000000E+00 -0.00000000000E+00 -0.74358522934E+03  0.74358522934E+03  0.00000000000E+00 0. -1.
          6    2    1    2  501    0  0.27992621768E+03 -0.55780337579E+02 -0.62762028078E+03  0.71019069920E+03  0.17027471619E+03 0.  0.
         24    2    3    3    0    0  0.22549679866E+03  0.21656800246E+02 -0.44072940405E+03  0.50064509134E+03  0.71311125922E+02 0.  0.
         -6    2    1    2    0  502 -0.27992621768E+03  0.55780337579E+02  0.29657122953E+03  0.44593070822E+03  0.17155048512E+03 0.  0.
        -24    2    5    5    0    0 -0.16699209666E+03  0.13801974052E+02  0.26091513324E+03  0.32019389619E+03  0.79815847881E+02 0.  0.
          5    1    3    3  501    0  0.54429419021E+02 -0.77437137825E+02 -0.18689087673E+03  0.20954560786E+03  0.47000000000E+01 0. -1.
        -13    1    4    4    0    0  0.23975863937E+02  0.25405629197E+02 -0.82805134833E+02  0.89872011222E+02  0.00000000000E+00 0.  1.
         14    1    4    4    0    0  0.20152093473E+03 -0.37488289511E+01 -0.35792426922E+03  0.41077308012E+03  0.00000000000E+00 0. -1.
         -5    1    5    5    0  502 -0.11293412102E+03  0.41978363527E+02  0.35656096288E+02  0.12573681203E+03  0.47000000000E+01 0.  1.
         11    1    6    6    0    0 -0.69700021701E+02  0.85271610748E+01  0.18111475828E+03  0.19425076877E+03  0.00000000000E+00 0. -1.
        -12    1    6    6    0    0 -0.97292074960E+02  0.52748129769E+01  0.79800374957E+02  0.12594312742E+03  0.00000000000E+00 0.  1.
</event>
<event>
12    1  0.8297444E-002  0.2332605E+03  0.7818608E-02  0.1124687E+00
         21   -1    0    0  501  502  0.00000000000E+00  0.00000000000E+00  0.17333770574E+03  0.17333770574E+03  0.00000000000E+00 0. -1.
         21   -1    0    0  502  503 -0.00000000000E+00 -0.00000000000E+00 -0.31142136285E+03  0.31142136285E+03  0.00000000000E+00 0.  1.
         -6    2    1    2    0  503  0.13619412589E+03  0.66784158512E+02 -0.70909781186E+02  0.24380048719E+03  0.17720473111E+03 0.  0.
        -24    2    3    3    0    0  0.10318890324E+03 -0.38239764688E+01  0.10722125206E+02  0.13083716753E+03  0.79629315511E+02 0.  0.
          6    2    1    2  501    0 -0.13619412589E+03 -0.66784158512E+02 -0.67173875928E+02  0.24095858140E+03  0.17475624335E+03 0.  0.
         24    2    5    5    0    0 -0.10186164117E+03 -0.12132192186E+02 -0.10009824678E+03  0.16835237556E+03  0.88316925454E+02 0.  0.
          5    1    5    5  501    0 -0.34332484727E+02 -0.54651966326E+02  0.32924370847E+02  0.72606205840E+02  0.47000000000E+01 0. -1.
        -11    1    6    6    0    0 -0.71483982125E+02  0.20342913336E+02 -0.20372762968E+02  0.77063890989E+02  0.00000000000E+00 0.  1.
         12    1    6    6    0    0 -0.30377659043E+02 -0.32475105521E+02 -0.79725483807E+02  0.91288484574E+02  0.00000000000E+00 0. -1.
         -5    1    3    3    0  503  0.33005222651E+02  0.70608134981E+02 -0.81631906392E+02  0.11296331966E+03  0.47000000000E+01 0.  1.
         11    1    4    4    0    0  0.48976460212E-01  0.16771947087E+02  0.18990397872E+02  0.25336452378E+02  0.00000000000E+00 0. -1.
        -12    1    4    4    0    0  0.10313992678E+03 -0.20595923556E+02 -0.82682726651E+01  0.10550071515E+03  0.00000000000E+00 0.  1.
</event>
<event>
12    1  0.8297444E-002  0.2169271E+03  0.7818608E-02  0.1136466E+00
         21   -1    0    0  503  502  0.00000000000E+00  0.00000000000E+00  0.95349135966E+02  0.95349135966E+02  0.00000000000E+00 0. -1.
         21   -1    0    0  501  503 -0.00000000000E+00 -0.00000000000E+00 -0.56295846675E+03  0.56295846675E+03  0.00000000000E+00 0. -1.
          6    2    1    2  501    0  0.12627932989E+03 -0.42384785348E+02 -0.35273006550E+03  0.41409646149E+03  0.17121460546E+03 0.  0.
         24    2    3    3    0    0  0.22082255099E+02 -0.38669466673E+02 -0.79399584069E+02  0.12151745324E+03  0.80493750367E+02 0.  0.
         -6    2    1    2    0  502 -0.12627932989E+03  0.42384785348E+02 -0.11487926529E+03  0.24421114123E+03  0.16940748721E+03 0.  0.
        -24    2    5    5    0    0 -0.12970079766E+03  0.17757342902E+00 -0.12672892320E+03  0.19998830130E+03  0.84337252955E+02 0.  0.
          5    1    3    3  501    0  0.10419707479E+03 -0.37153186744E+01 -0.27333048143E+03  0.29257900825E+03  0.47000000000E+01 0. -1.
        -13    1    4    4    0    0 -0.22644756191E+02 -0.32262792932E+02 -0.61224180066E+02  0.72815335029E+02  0.00000000000E+00 0.  1.
         14    1    4    4    0    0  0.44727011290E+02 -0.64066737413E+01 -0.18175404003E+02  0.48702118208E+02  0.00000000000E+00 0. -1.
         -5    1    5    5    0  502  0.34214677684E+01  0.42207211919E+02  0.11849657908E+02  0.44222839938E+02  0.47000000000E+01 0.  1.
         11    1    6    6    0    0 -0.10698842639E+03  0.10138978020E+02 -0.48468145278E+02  0.11789182908E+03  0.00000000000E+00 0. -1.
        -12    1    6    6    0    0 -0.22712371262E+02 -0.99614045912E+01 -0.78260777917E+02  0.82096472214E+02  0.00000000000E+00 0.  1.
</event>
<event>
12    1  0.8297444E-002  0.3521236E+03  0.7818608E-02  0.1061905E+00
         21   -1    0    0  501  502  0.00000000000E+00  0.00000000000E+00  0.11073063798E+04  0.11073063798E+04  0.00000000000E+00 0.  1.
         21   -1    0    0  502  503 -0.00000000000E+00 -0.00000000000E+00 -0.26350011759E+03  0.26350011759E+03  0.00000000000E+00 0. -1.
         -6    2    1    2    0  503  0.21649101203E+03 -0.21690135493E+03 -0.98300964663E+02  0.36558733891E+03  0.17342568049E+03 0.  0.
        -24    2    3    3    0    0  0.14205314256E+03 -0.86922422647E+02  0.35099224936E+01  0.18441596702E+03  0.79134862514E+02 0.  0.
          6    2    1    2  501    0 -0.21649101203E+03  0.21690135493E+03  0.94210722688E+03  0.10052191585E+04  0.17024973883E+03 0.  0.
         24    2    5    5    0    0 -0.40820681233E+02  0.11158709546E+03  0.31760980176E+03  0.34797469685E+03  0.78053799256E+02 0.  0.
          5    1    5    5  501    0 -0.17567033080E+03  0.10531425947E+03  0.62449742511E+03  0.65724446163E+03  0.47000000000E+01 0. -1.
        -13    1    6    6    0    0 -0.59922928069E+02  0.52040986716E+02  0.18805284353E+03  0.20411490285E+03  0.00000000000E+00 0.  1.
         14    1    6    6    0    0  0.19102246836E+02  0.59546108745E+02  0.12955695824E+03  0.14385979400E+03  0.00000000000E+00 0. -1.
         -5    1    3    3    0  503  0.74437869472E+02 -0.12997893229E+03 -0.10181088716E+03  0.18117137189E+03  0.47000000000E+01 0.  1.
         11    1    4    4    0    0  0.88763876014E+02 -0.54484734763E+02 -0.36431618784E+02  0.11033981536E+03  0.00000000000E+00 0. -1.
        -12    1    4    4    0    0  0.53289266546E+02 -0.32437687884E+02  0.39941541277E+02  0.74076151654E+02  0.00000000000E+00 0.  1.
</event>
<event>
12    1  0.8297444E-002  0.1784402E+03  0.7818608E-02  0.1169628E+00
         21   -1    0    0  501  502  0.00000000000E+00  0.00000000000E+00  0.49507299176E+03  0.49507299176E+03  0.00000000000E+00 0.  1.
         21   -1    0    0  502  503 -0.00000000000E+00 -0.00000000000E+00 -0.90036388214E+02  0.90036388214E+02  0.00000000000E+00 0.  1.
         -6    2    1    2    0  503  0.71240055003E+01  0.43075944248E+02  0.45298040515E+02  0.18410002387E+03  0.17301623591E+03 0.  0.
        -24    2    3    3    0    0 -0.33788197036E-01 -0.88667494659E+01 -0.33702110889E+02  0.89166408316E+02  0.82074330371E+02 0.  0.
          6    2    1    2  501    0 -0.71240055003E+01 -0.43075944248E+02  0.35973856303E+03  0.40100935610E+03  0.17172763762E+03 0.  0.
         24    2    5    5    0    0 -0.38308046411E+02 -0.74158072658E+02  0.16046155721E+03  0.19687224982E+03  0.77742171597E+02 0.  0.
          5    1    5    5  501    0  0.31184040910E+02  0.31082128410E+02  0.19927700582E+03  0.20413710628E+03  0.47000000000E+01 0. -1.
        -13    1    6    6    0    0  0.36163454871E+00 -0.72893326146E+02  0.84289826308E+02  0.11143761750E+03  0.00000000000E+00 0.  1.
         14    1    6    6    0    0 -0.38669680959E+02 -0.12647465122E+01  0.76171730904E+02  0.85434632311E+02  0.00000000000E+00 0. -1.
         -5    1    3    3    0  503  0.71577936974E+01  0.51942693714E+02  0.79000151403E+02  0.94933615556E+02  0.47000000000E+01 0.  1.
         11    1    4    4    0    0 -0.32879833427E+02 -0.12151712704E+02  0.80257190629E+01  0.35960530228E+02  0.00000000000E+00 0. -1.
        -12    1    4    4    0    0  0.32846045230E+02  0.32849632378E+01 -0.41727829951E+02  0.53205878088E+02  0.00000000000E+00 0.  1.
</event>
<event>
12    1  0.8297444E-002  0.1703538E+03  0.7818608E-02  0.1177616E+00
         21   -1    0    0  501  502  0.00000000000E+00  0.00000000000E+00  0.40846113914E+03  0.40846113914E+03  0.00000000000E+00 0.  1.
         21   -1    0    0  502  503 -0.00000000000E+00 -0.00000000000E+00 -0.13827546321E+03  0.13827546321E+03  0.00000000000E+00 0.  1.
         -6    2    1    2    0  503 -0.91227394853E+01 -0.80085224028E+01  0.32611909776E+03  0.36793219033E+03  0.16992077551E+03 0.  0.
        -24    2    3    3    0    0 -0.12502046895E+01  0.48871825576E+02  0.11225559859E+03  0.14644395799E+03  0.80339872220E+02 0.  0.
          6    2    1    2  501    0  0.91227394853E+01  0.80085224028E+01 -0.55933421838E+02  0.17880441202E+03  0.16939630832E+03 0.  0.
         24    2    5    5    0    0 -0.15158303397E+02  0.66849009383E+02 -0.38079133133E+02  0.11252743580E+03  0.80708358988E+02 0.  0.
          5    1    5    5  501    0  0.24281042882E+02 -0.58840486980E+02 -0.17854288705E+02  0.66276976218E+02  0.47000000000E+01 0. -1.
        -11    1    6    6    0    0  0.22952086808E+02  0.53024775745E+02 -0.13061514574E+01  0.57793867869E+02  0.00000000000E+00 0.  1.
         12    1    6    6    0    0 -0.38110390205E+02  0.13824233638E+02 -0.36772981676E+02  0.54733567932E+02  0.00000000000E+00 0. -1.
         -5    1    3    3    0  503 -0.78725347957E+01 -0.56880347978E+02  0.21386349917E+03  0.22148823234E+03  0.47000000000E+01 0.  1.
         11    1    4    4    0    0 -0.13632472349E+02  0.63152252209E+02  0.10978177332E+03  0.12738166671E+03  0.00000000000E+00 0. -1.
        -12    1    4    4    0    0  0.12382267659E+02 -0.14280426634E+02  0.24738252789E+01  0.19062291277E+02  0.00000000000E+00 0.  1.
</event>
<event>
12    1  0.8297444E-002  0.2318210E+03  0.7818608E-02  0.1125711E+00
         21   -1    0    0  501  502  0.00000000000E+00  0.00000000000E+00  0.14892545445E+04  0.14892545445E+04  0.00000000000E+00 0. -1.
         21   -1    0    0  502  503 -0.00000000000E+00 -0.00000000000E+00 -0.63803317145E+02  0.63803317145E+02  0.00000000000E+00 0. -1.
         -6    2    1    2    0  503 -0.21534374853E+02 -0.15149636439E+03  0.19979442583E+03  0.30603722563E+03  0.17414388636E+03 0.  0.
        -24    2    3    3    0    0 -0.23539092378E+01 -0.12962920103E+03  0.61161703977E+02  0.16430796026E+03  0.80293717830E+02 0.  0.
          6    2    1    2  501    0  0.21534374853E+02  0.15149636439E+03  0.12256568015E+04  0.12470206360E+04  0.17149633754E+03 0.  0.
         24    2    5    5    0    0 -0.13737606386E+02  0.17155966253E+03  0.98275429087E+03  0.10007070792E+04  0.77377144404E+02 0.  0.
          5    1    5    5  501    0  0.35271981239E+02 -0.20063298140E+02  0.24290251066E+03  0.24631355683E+03  0.47000000000E+01 0. -1.
        -11    1    6    6    0    0  0.30436051223E+02  0.56215344021E+02  0.39208746617E+03  0.39726452049E+03  0.00000000000E+00 0.  1.
         12    1    6    6    0    0 -0.44173657609E+02  0.11534431851E+03  0.59066682471E+03  0.60344255870E+03  0.00000000000E+00 0. -1.
         -5    1    3    3    0  503 -0.19180465615E+02 -0.21867163359E+02  0.13863272185E+03  0.14172926537E+03  0.47000000000E+01 0.  1.
         13    1    4    4    0    0 -0.17746877205E+02 -0.11033839784E+03  0.16072329054E+02  0.11290630385E+03  0.00000000000E+00 0. -1.
        -14    1    4    4    0    0  0.15392967967E+02 -0.19290803193E+02  0.45089374923E+02  0.51401656409E+02  0.00000000000E+00 0.  1.
</event>
<event>
12    1  0.8297444E-002  0.1846427E+03  0.7818608E-02  0.1163727E+00
         21   -1    0    0  503  502  0.00000000000E+00  0.00000000000E+00  0.25448788258E+03  0.25448788258E+03  0.00000000000E+00 0.  1.
         21   -1    0    0  501  503 -0.00000000000E+00 -0.00000000000E+00 -0.14814650786E+03  0.14814650786E+03  0.00000000000E+00 0. -1.
          6    2    1    2  501    0 -0.22576319574E+02  0.60429823200E+02 -0.11576644310E+02  0.18355090248E+03  0.17145104657E+03 0.  0.
         24    2    3    3    0    0  0.49858778106E+02  0.44288822244E+02  0.10631759782E+02  0.10594498454E+03  0.81632762434E+02 0.  0.
         -6    2    1    2    0  502  0.22576319574E+02 -0.60429823200E+02  0.11791801903E+03  0.21908348796E+03  0.17300711473E+03 0.  0.
        -24    2    5    5    0    0  0.23547811745E+01 -0.36482061374E+02 -0.90412705511E+01  0.88228006137E+02  0.79786908056E+02 0.  0.
          5    1    3    3  501    0 -0.72435097680E+02  0.16141000956E+02 -0.22208404091E+02  0.77605917945E+02  0.47000000000E+01 0. -1.
        -11    1    4    4    0    0 -0.18628960975E+02  0.29730325963E+02  0.73744349508E+01  0.35851258831E+02  0.00000000000E+00 0.  1.
         12    1    4    4    0    0  0.68487739081E+02  0.14558496280E+02  0.32573248307E+01  0.70093725707E+02  0.00000000000E+00 0. -1.
         -5    1    5    5    0  502  0.20221538400E+02 -0.23947761826E+02  0.12695928958E+03  0.13085548182E+03  0.47000000000E+01 0.  1.
         13    1    6    6    0    0  0.91781037289E+01 -0.10845202396E+02 -0.42912891968E+02  0.45203675737E+02  0.00000000000E+00 0. -1.
        -14    1    6    6    0    0 -0.68233225543E+01 -0.25636858978E+02  0.33871621417E+02  0.43024330400E+02  0.00000000000E+00 0.  1.
</event>
<event>
12    1  0.8297444E-002  0.1741609E+03  0.7818608E-02  0.1173693E+00
         21   -1    0    0  503  502  0.00000000000E+00  0.00000000000E+00  0.41652403205E+03  0.41652403205E+03  0.00000000000E+00 0. -1.
         21   -1    0    0  501  503 -0.00000000000E+00 -0.00000000000E+00 -0.17514568862E+03  0.17514568862E+03  0.00000000000E+00 0. -1.
          6    2    1    2  501    0  0.11025620279E+02 -0.14916712784E+02 -0.10557645511E+03  0.20366248017E+03  0.17317027843E+03 0.  0.
         24    2    3    3    0    0 -0.85430935508E+01 -0.46897166643E+02 -0.16837876563E+01  0.93111766286E+02  0.79966475435E+02 0.  0.
         -6    2    1    2    0  502 -0.11025620279E+02  0.14916712784E+02  0.34695479854E+03  0.38800724050E+03  0.17270759631E+03 0.  0.
        -24    2    5    5    0    0 -0.41694739615E+02 -0.97868781988E+01  0.97211988637E+02  0.13513489446E+03  0.83528645809E+02 0.  0.
          5    1    3    3  501    0  0.19568713830E+02  0.31980453859E+02 -0.10389266745E+03  0.11055071388E+03  0.47000000000E+01 0. -1.
        -11    1    4    4    0    0  0.43036889191E+01 -0.61205827415E+02 -0.21958836888E+02  0.65167979602E+02  0.00000000000E+00 0.  1.
         12    1    4    4    0    0 -0.12846782470E+02  0.14308660773E+02  0.20275049231E+02  0.27943786684E+02  0.00000000000E+00 0. -1.
         -5    1    5    5    0  502  0.30669119336E+02  0.24703590983E+02  0.24974280991E+03  0.25287234603E+03  0.47000000000E+01 0.  1.
         11    1    6    6    0    0 -0.27257565080E+02  0.24571927399E+02  0.89973271337E+02  0.97169666178E+02  0.00000000000E+00 0. -1.
        -12    1    6    6    0    0 -0.14437174535E+02 -0.34358805598E+02  0.72387173007E+01  0.37965228286E+02  0.00000000000E+00 0.  1.
</event>
<event>
12    1  0.8297444E-002  0.2275059E+03  0.7818608E-02  0.1129310E+00
         21   -1    0    0  501  502  0.00000000000E+00  0.00000000000E+00  0.11732268366E+04  0.11732268366E+04  0.00000000000E+00 0. -1.
         21   -1    0    0  502  503 -0.00000000000E+00 -0.00000000000E+00 -0.37209873183E+03  0.37209873183E+03  0.00000000000E+00 0.  1.
         -6    2    1    2    0  503 -0.13943260469E+03  0.56817444800E+02 -0.32642517707E+03  0.39504936827E+03  0.16383202943E+03 0.  0.
        -24    2    3    3    0    0 -0.11088158284E+03  0.63351770236E+01 -0.30339419292E+03  0.33247032674E+03  0.78445025238E+02 0.  0.
          6    2    1    2  501    0  0.13943260469E+03 -0.56817444800E+02  0.11275532819E+04  0.11502762002E+04  0.17055573867E+03 0.  0.
         24    2    5    5    0    0  0.65591220344E+02  0.12142804923E+02  0.32333853032E+03  0.33972606436E+03  0.80102045674E+02 0.  0.
          5    1    5    5  501    0  0.73841384346E+02 -0.68960249723E+02  0.80421475153E+03  0.81055013581E+03  0.47000000000E+01 0. -1.
        -13    1    6    6    0    0  0.26144532360E+02 -0.18020623996E+02  0.35473251008E+02  0.47609148266E+02  0.00000000000E+00 0.  1.
         14    1    6    6    0    0  0.39446687984E+02  0.30163428919E+02  0.28786527931E+03  0.29211691610E+03  0.00000000000E+00 0. -1.
         -5    1    3    3    0  503 -0.28551021845E+02  0.50482267777E+02 -0.23030984147E+02  0.62579041532E+02  0.47000000000E+01 0.  1.
         11    1    4    4    0    0 -0.98956189767E+02 -0.13521385152E+02 -0.17071603361E+03  0.19778553911E+03  0.00000000000E+00 0. -1.
        -12    1    4    4    0    0 -0.11925393078E+02  0.19856562176E+02 -0.13267815931E+03  0.13468478764E+03  0.00000000000E+00 0.  1.
</event>
<event>
12    1  0.8297444E-002  0.2047072E+03  0.7818608E-02  0.1146010E+00
         21   -1    0    0  501  502  0.00000000000E+00  0.00000000000E+00  0.83164778806E+02  0.83164778806E+02  0.00000000000E+00 0.  1.
         21   -1    0    0  502  503 -0.00000000000E+00 -0.00000000000E+00 -0.50174281158E+03  0.50174281158E+03  0.00000000000E+00 0.  1.
         -6    2    1    2    0  503 -0.43842021487E+02  0.10205241344E+03 -0.20583947689E+03  0.28967426442E+03  0.17089315751E+03 0.  0.
        -24    2    3    3    0    0 -0.90789365316E+02  0.44230685836E+02 -0.12871020115E+03  0.18235036004E+03  0.80537416777E+02 0.  0.
          6    2    1    2  501    0  0.43842021487E+02 -0.10205241344E+03 -0.21273855589E+03  0.29523332597E+03  0.17195408012E+03 0.  0.
         24    2    5    5    0    0 -0.36119400452E+02 -0.80435353596E+02 -0.10051420665E+03  0.15567143706E+03  0.79724735067E+02 0.  0.
          5    1    5    5  501    0  0.79961421939E+02 -0.21617059841E+02 -0.11222434924E+03  0.13956188891E+03  0.47000000000E+01 0. -1.
        -11    1    6    6    0    0  0.66287773682E+01 -0.74770472440E+02 -0.55640052734E+02  0.93436500933E+02  0.00000000000E+00 0.  1.
         12    1    6    6    0    0 -0.42748177820E+02 -0.56648811562E+01 -0.44874153915E+02  0.62234936130E+02  0.00000000000E+00 0. -1.
         -5    1    3    3    0  503  0.46947343828E+02  0.57821727600E+02 -0.77129275736E+02  0.10732390438E+03  0.47000000000E+01 0.  1.
         11    1    4    4    0    0  0.13989587261E+02  0.29914317436E+01 -0.52154787889E+01  0.15226898391E+02  0.00000000000E+00 0. -1.
        -12    1    4    4    0    0 -0.10477895258E+03  0.41239254093E+02 -0.12349472236E+03  0.16712346165E+03  0.00000000000E+00 0.  1.
</event>
<event>
12    1  0.8297444E-002  0.2567650E+03  0.7818608E-02  0.1109469E+00
         21   -1    0    0  501  502  0.00000000000E+00  0.00000000000E+00  0.17467807972E+04  0.17467807972E+04  0.00000000000E+00 0. -1.
         21   -1    0    0  502  503 -0.00000000000E+00 -0.00000000000E+00 -0.64626947736E+03  0.64626947736E+03  0.00000000000E+00 0.  1.
         -6    2    1    2    0  503 -0.17819589452E+03 -0.60624489048E+02 -0.61128671484E+03  0.66210233519E+03  0.17111092609E+03 0.  0.
        -24    2    3    3    0    0 -0.64178871574E+02 -0.83359483085E+02 -0.25488494708E+03  0.28718758283E+03  0.80266060734E+02 0.  0.
          6    2    1    2  501    0  0.17819589452E+03  0.60624489048E+02  0.17117980347E+04  0.17309479394E+04  0.17464006360E+03 0.  0.
         24    2    5    5    0    0  0.73189032658E+02  0.76530084478E+02  0.12366604519E+04  0.12440626946E+04  0.84554281378E+02 0.  0.
          5    1    5    5  501    0  0.10500686186E+03 -0.15905595430E+02  0.47513758279E+03  0.48688524478E+03  0.47000000000E+01 0. -1.
        -13    1    6    6    0    0 -0.87989810196E+01  0.69524641695E+01  0.22401487293E+02  0.25051655793E+02  0.00000000000E+00 0.  1.
         14    1    6    6    0    0  0.81988013678E+02  0.69577620309E+02  0.12142589646E+04  0.12190110388E+04  0.00000000000E+00 0. -1.
         -5    1    3    3    0  503 -0.11401702294E+03  0.22734994037E+02 -0.35640176776E+03  0.37491475236E+03  0.47000000000E+01 0.  1.
         11    1    4    4    0    0 -0.55175801655E+02 -0.28089176848E+02 -0.67413093345E+02  0.91530847798E+02  0.00000000000E+00 0. -1.
        -12    1    4    4    0    0 -0.90030699188E+01 -0.55270306238E+02 -0.18747185374E+03  0.19565673503E+03  0.00000000000E+00 0.  1.
</event>
<event>
12    1  0.8297444E-002  0.1994893E+03  0.7818608E-02  0.1150246E+00
         21   -1    0    0  501  502  0.00000000000E+00  0.00000000000E+00  0.43176573388E+02  0.43176573388E+02  0.00000000000E+00 0.  1.
         21   -1    0    0  502  503 -0.00000000000E+00 -0.00000000000E+00 -0.10090381655E+04  0.10090381655E+04  0.00000000000E+00 0.  1.
         -6    2    1    2    0  503  0.71332029993E+02 -0.71910985177E+02 -0.32631864514E+03  0.38228104728E+03  0.17145113780E+03 0.  0.
        -24    2    3    3    0    0  0.59043138505E+02 -0.56551507984E+02 -0.33936825293E+03  0.35821213253E+03  0.80380069282E+02 0.  0.
          6    2    1    2  501    0 -0.71332029993E+02  0.71910985177E+02 -0.63954294697E+03  0.66993369160E+03  0.17186192666E+03 0.  0.
         24    2    5    5    0    0  0.22136140180E+02  0.64578500322E+02 -0.31598332593E+03  0.33303165460E+03  0.80026428722E+02 0.  0.
          5    1    5    5  501    0 -0.93468170173E+02  0.73324848546E+01 -0.32355962104E+03  0.33690203700E+03  0.47000000000E+01 0. -1.
        -13    1    6    6    0    0 -0.94874435984E+01 -0.13721134750E+02 -0.95195207831E+02  0.96645789970E+02  0.00000000000E+00 0.  1.
         14    1    6    6    0    0  0.31623583778E+02  0.78299635072E+02 -0.22078811810E+03  0.23638586463E+03  0.00000000000E+00 0. -1.
         -5    1    3    3    0  503  0.12288891487E+02 -0.15359477192E+02  0.13049607791E+02  0.24068914747E+02  0.47000000000E+01 0.  1.
         13    1    4    4    0    0  0.12228556027E+01 -0.53121231672E+02 -0.11836214068E+03  0.12974188598E+03  0.00000000000E+00 0. -1.
        -14    1    4    4    0    0  0.57820282903E+02 -0.34302763126E+01 -0.22100611224E+03  0.22847024655E+03  0.00000000000E+00 0.  1.
</event>
<event>
12    1  0.8297444E-002  0.1910454E+03  0.7818608E-02  0.1157539E+00
         21   -1    0    0  503  502  0.00000000000E+00  0.00000000000E+00  0.27932509251E+03  0.27932509251E+03  0.00000000000E+00 0. -1.
         21   -1    0    0  501  503 -0.00000000000E+00 -0.00000000000E+00 -0.27891019316E+03  0.27891019316E+03  0.00000000000E+00 0. -1.
          6    2    1    2  501    0  0.11615150856E+02 -0.80983633946E+02 -0.20331828865E+03  0.27894052538E+03  0.17255790188E+03 0.  0.
         24    2    3    3    0    0 -0.39719362262E+02 -0.24246921896E+02 -0.17377387349E+03  0.19678671111E+03  0.79762833455E+02 0.  0.
         -6    2    1    2    0  502 -0.11615150856E+02  0.80983633946E+02  0.20373318800E+03  0.27929476030E+03  0.17264150875E+03 0.  0.
        -24    2    5    5    0    0  0.19769815491E+02  0.60193015390E+02  0.21655973274E+03  0.23924633732E+03  0.79540224871E+02 0.  0.
          5    1    3    3  501    0  0.51334513118E+02 -0.56736712050E+02 -0.29544415154E+02  0.82153814264E+02  0.47000000000E+01 0. -1.
        -13    1    4    4    0    0 -0.13880885416E+02  0.29196199200E+02 -0.50439563612E+02  0.59910321357E+02  0.00000000000E+00 0.  1.
         14    1    4    4    0    0 -0.25838476845E+02 -0.53443121096E+02 -0.12333430988E+03  0.13687638975E+03  0.00000000000E+00 0. -1.
         -5    1    5    5    0  502 -0.31384966347E+02  0.20790618556E+02 -0.12826544743E+02  0.40048422973E+02  0.47000000000E+01 0.  1.
         11    1    6    6    0    0  0.28325707321E+02  0.68491060056E+02  0.11386636386E+03  0.13586360742E+03  0.00000000000E+00 0. -1.
        -12    1    6    6    0    0 -0.85558918296E+01 -0.82980446659E+01  0.10269336888E+03  0.10338272990E+03  0.00000000000E+00 0.  1.
</event>
<event>
12    1  0.8297444E-002  0.2231300E+03  0.7818608E-02  0.1132103E+00
         21   -1    0    0  501  502  0.00000000000E+00  0.00000000000E+00  0.53856036879E+03  0.53856036879E+03  0.00000000000E+00 0.  1.
         21   -1    0    0  502  503 -0.00000000000E+00 -0.00000000000E+00 -0.10093448583E+03  0.10093448583E+03  0.00000000000E+00 0.  1.
         -6    2    1    2    0  503  0.14361108880E+03 -0.29004682729E+01  0.12107145565E+03  0.25386078032E+03  0.17074671555E+03 0.  0.
        -24    2    3    3    0    0  0.12683758756E+03  0.56424734981E+02  0.93739289107E+02  0.18625924622E+03  0.81448929673E+02 0.  0.
          6    2    1    2  501    0 -0.14361108880E+03  0.29004682729E+01  0.31655442732E+03  0.38563407430E+03  0.16695621061E+03 0.  0.
         24    2    5    5    0    0 -0.10000479863E+03 -0.60765452056E+02  0.22439333321E+03  0.26534020404E+03  0.79747451235E+02 0.  0.
          5    1    5    5  501    0 -0.43606290178E+02  0.63665920329E+02  0.92161094108E+02  0.12029387026E+03  0.47000000000E+01 0. -1.
        -13    1    6    6    0    0 -0.98216179464E+02 -0.61427686306E+02  0.14349600196E+03  0.18442039240E+03  0.00000000000E+00 0.  1.
         14    1    6    6    0    0 -0.17886191610E+01  0.66223425022E+00  0.80897331250E+02  0.80919811642E+02  0.00000000000E+00 0. -1.
         -5    1    3    3    0  503  0.16773501243E+02 -0.59325203254E+02  0.27332166540E+02  0.67601534101E+02  0.47000000000E+01 0.  1.
         13    1    4    4    0    0  0.10193695850E+02 -0.68308753099E+01  0.42136367008E+02  0.43886737373E+02  0.00000000000E+00 0. -1.
        -14    1    4    4    0    0  0.11664389171E+03  0.63255610291E+02  0.51602922098E+02  0.14237250885E+03  0.00000000000E+00 0.  1.
</event>
<event>
12    1  0.8297444E-002  0.1782006E+03  0.7818608E-02  0.1169642E+00
         21   -1    0    0  501  502  0.00000000000E+00  0.00000000000E+00  0.15666772529E+04  0.15666772529E+04  0.00000000000E+00 0. -1.
         21   -1    0    0  502  503 -0.00000000000E+00 -0.00000000000E+00 -0.23867815974E+02  0.23867815974E+02  0.00000000000E+00 0. -1.
         -6    2    1    2    0  503 -0.35203908619E+02  0.35428757922E+02  0.46026171056E+03  0.49342838265E+03  0.17069333473E+03 0.  0.
        -24    2    3    3    0    0 -0.88109436915E+02  0.16613071904E+02  0.29159090614E+03  0.31559431608E+03  0.80840885522E+02 0.  0.
          6    2    1    2  501    0  0.35203908619E+02 -0.35428757922E+02  0.10825477263E+04  0.10971166862E+04  0.17105826864E+03 0.  0.
         24    2    5    5    0    0  0.44160915410E+01 -0.80863475353E+02  0.81802666020E+03  0.82692103919E+03  0.89846451012E+02 0.  0.
          5    1    5    5  501    0  0.30787817078E+02  0.45434717430E+02  0.26452106613E+03  0.27019564699E+03  0.47000000000E+01 0. -1.
        -11    1    6    6    0    0 -0.27900417928E+02 -0.10057105181E+02  0.90336326373E+02  0.95080126987E+02  0.00000000000E+00 0.  1.
         12    1    6    6    0    0  0.32316509469E+02 -0.70806370172E+02  0.72769033382E+03  0.73184091221E+03  0.00000000000E+00 0. -1.
         -5    1    3    3    0  503  0.52905528296E+02  0.18815686019E+02  0.16867080443E+03  0.17783406656E+03  0.47000000000E+01 0.  1.
         11    1    4    4    0    0 -0.46726487263E+02  0.34836837613E+02  0.78572142091E+02  0.97829194924E+02  0.00000000000E+00 0. -1.
        -12    1    4    4    0    0 -0.41382949653E+02 -0.18223765709E+02  0.21301876405E+03  0.21776512116E+03  0.00000000000E+00 0.  1.
</event>
<event>
12    1  0.8297444E-002  0.2042245E+03  0.7818608E-02  0.1146743E+00
         21   -1    0    0  501  502  0.00000000000E+00  0.00000000000E+00  0.29985785542E+03  0.29985785542E+03  0.00000000000E+00 0. -1.
         21   -1    0    0  502  503 -0.00000000000E+00 -0.00000000000E+00 -0.15647474936E+03  0.15647474936E+03  0.00000000000E+00 0. -1.
         -6    2    1    2    0  503 -0.10223275075E+03  0.29299900204E+02 -0.76159960981E+01  0.20436649763E+03  0.17434919695E+03 0.  0.
        -24    2    3    3    0    0 -0.88066778808E+02 -0.12068450691E+02  0.50429819138E+02  0.13154190094E+03  0.82817268804E+02 0.  0.
          6    2    1    2  501    0  0.10223275075E+03 -0.29299900204E+02  0.15099910216E+03  0.25196610716E+03  0.17139478062E+03 0.  0.
         24    2    5    5    0    0  0.88806305637E+02 -0.65268480975E+02  0.47951855892E+02  0.14189870420E+03  0.75427629155E+02 0.  0.
          5    1    5    5  501    0  0.13426445113E+02  0.35968580771E+02  0.10304724626E+03  0.11006740296E+03  0.47000000000E+01 0. -1.
        -13    1    6    6    0    0 -0.83473754372E+01 -0.25038200111E+02  0.19937843189E+02  0.33077299353E+02  0.00000000000E+00 0.  1.
         14    1    6    6    0    0  0.97153681075E+02 -0.40230280864E+02  0.28014012704E+02  0.10882140485E+03  0.00000000000E+00 0. -1.
         -5    1    3    3    0  503 -0.14165971942E+02  0.41368350895E+02 -0.58045815236E+02  0.72824596691E+02  0.47000000000E+01 0.  1.
         13    1    4    4    0    0 -0.78755176037E+02  0.21677477031E+02  0.17619812912E+02  0.83562842042E+02  0.00000000000E+00 0. -1.
        -14    1    4    4    0    0 -0.93116027709E+01 -0.33745927721E+02  0.32810006226E+02  0.47979058895E+02  0.00000000000E+00 0.  1.
</event>
<event>
12    1  0.8297444E-002  0.2313038E+03  0.7818608E-02  0.1126029E+00
         21   -1    0    0  501  502  0.00000000000E+00  0.00000000000E+00  0.21912593699E+03  0.21912593699E+03  0.00000000000E+00 0. -1.
         21   -1    0    0  502  503 -0.00000000000E+00 -0.00000000000E+00 -0.58907717726E+03  0.58907717726E+03  0.00000000000E+00 0. -1.
         -6    2    1    2    0  503 -0.11617736848E+03 -0.10334005849E+03 -0.49472223236E+03  0.54539282373E+03  0.16889907149E+03 0.  0.
        -24    2    3    3    0    0 -0.74029526403E+02 -0.77370549889E+02 -0.47215048841E+03  0.49078119865E+03  0.80458240596E+02 0.  0.
          6    2    1    2  501    0  0.11617736848E+03  0.10334005849E+03  0.12477099209E+03  0.26281029053E+03  0.17124572901E+03 0.  0.
         24    2    5    5    0    0  0.87186324983E+02  0.16360618162E+02  0.88389477485E+01  0.11493117588E+03  0.72539114288E+02 0.  0.
          5    1    5    5  501    0  0.28991043496E+02  0.86979440326E+02  0.11593204434E+03  0.14787911464E+03  0.47000000000E+01 0. -1.
        -11    1    6    6    0    0  0.78499048617E+02  0.39416008647E+02  0.15976639855E+02  0.89280319178E+02  0.00000000000E+00 0.  1.
         12    1    6    6    0    0  0.86872763658E+01 -0.23055390485E+02 -0.71376921065E+01  0.25650856704E+02  0.00000000000E+00 0. -1.
         -5    1    3    3    0  503 -0.42147842077E+02 -0.25969508599E+02 -0.22571743956E+02  0.54611625079E+02  0.47000000000E+01 0.  1.
         13    1    4    4    0    0  0.44290780894E+01 -0.16927634210E+02 -0.20698390633E+03  0.20772216784E+03  0.00000000000E+00 0. -1.
        -14    1    4    4    0    0 -0.78458604492E+02 -0.60442915680E+02 -0.26516658207E+03  0.28305903081E+03  0.00000000000E+00 0.  1.
</event>
<event>
12    1  0.8297444E-002  0.2485117E+03  0.7818608E-02  0.1114457E+00
         21   -1    0    0  503  502  0.00000000000E+00  0.00000000000E+00  0.29502171238E+03  0.29502171238E+03  0.00000000000E+00 0.  1.
         21   -1    0    0  501  503 -0.00000000000E+00 -0.00000000000E+00 -0.22020174359E+03  0.22020174359E+03  0.00000000000E+00 0.  1.
          6    2    1    2  501    0 -0.99762331973E+02 -0.14775510519E+03 -0.22734977924E+02  0.24824958594E+03  0.17125093784E+03 0.  0.
         24    2    3    3    0    0 -0.34579060966E+01 -0.54345241032E+02 -0.49495682934E+02  0.11136214862E+03  0.83584347686E+02 0.  0.
         -6    2    1    2    0  502  0.99762331973E+02  0.14775510519E+03  0.97554946709E+02  0.26697387003E+03  0.17312996754E+03 0.  0.
        -24    2    5    5    0    0  0.52591798466E+02  0.12397709860E+02  0.19381904003E+00  0.93630387650E+02  0.76465753446E+02 0.  0.
          5    1    3    3  501    0 -0.96304425876E+02 -0.93409864156E+02  0.26760705010E+02  0.13688743733E+03  0.47000000000E+01 0. -1.
        -11    1    4    4    0    0 -0.26428622139E+02 -0.62967141095E+02 -0.16517186024E+02  0.70257742349E+02  0.00000000000E+00 0.  1.
         12    1    4    4    0    0  0.22970716043E+02  0.86219000625E+01 -0.32978496909E+02  0.41104406267E+02  0.00000000000E+00 0. -1.
         -5    1    5    5    0  502  0.47170533507E+02  0.13535739533E+03  0.97361127669E+02  0.17334348238E+03  0.47000000000E+01 0.  1.
         13    1    6    6    0    0  0.16665816680E+02  0.31606781612E+02 -0.26882058338E+02  0.44714462425E+02  0.00000000000E+00 0. -1.
        -14    1    6    6    0    0  0.35925981787E+02 -0.19209071752E+02  0.27075877378E+02  0.48915925226E+02  0.00000000000E+00 0.  1.
</event>
<event>
12    1  0.8297444E-002  0.2026267E+03  0.7818608E-02  0.1148228E+00
         21   -1    0    0  501  502  0.00000000000E+00  0.00000000000E+00  0.64580520876E+03  0.64580520876E+03  0.00000000000E+00 0.  1.
         21   -1    0    0  502  503 -0.00000000000E+00 -0.00000000000E+00 -0.62779129698E+02  0.62779129698E+02  0.00000000000E+00 0.  1.
         -6    2    1    2    0  503 -0.39717364883E+02  0.97511928426E+02  0.31523506374E+03  0.37474089789E+03  0.17312293286E+03 0.  0.
        -24    2    3    3    0    0 -0.23772286400E+02  0.52168979699E+02  0.31113881419E+03  0.32627340582E+03  0.79751173069E+02 0.  0.
          6    2    1    2  501    0  0.39717364883E+02 -0.97511928426E+02  0.26779101533E+03  0.33384344057E+03  0.16927306243E+03 0.  0.
         24    2    5    5    0    0  0.86657602537E+02 -0.53364353138E+02  0.14578271131E+03  0.19578363265E+03  0.81983764449E+02 0.  0.
          5    1    5    5  501    0 -0.46940237654E+02 -0.44147575288E+02  0.12200830401E+03  0.13805980792E+03  0.47000000000E+01 0. -1.
        -13    1    6    6    0    0  0.61058478849E+02 -0.73124947904E+02  0.88639768137E+02  0.13012457239E+03  0.00000000000E+00 0.  1.
         14    1    6    6    0    0  0.25599123688E+02  0.19760594766E+02  0.57142943177E+02  0.65659060259E+02  0.00000000000E+00 0. -1.
         -5    1    3    3    0  503 -0.15945078483E+02  0.45342948727E+02  0.40962495475E+01  0.48467492069E+02  0.47000000000E+01 0.  1.
         11    1    4    4    0    0 -0.44753338827E+02  0.45608517539E+01  0.16999078798E+03  0.17584234616E+03  0.00000000000E+00 0. -1.
        -12    1    4    4    0    0  0.20981052427E+02  0.47608127945E+02  0.14114802621E+03  0.15043105966E+03  0.00000000000E+00 0.  1.
</event>
<event>
12    1  0.8297444E-002  0.1760097E+03  0.7818608E-02  0.1171844E+00
         21   -1    0    0  503  502  0.00000000000E+00  0.00000000000E+00  0.32053377191E+03  0.32053377191E+03  0.00000000000E+00 0.  1.
         21   -1    0    0  501  503 -0.00000000000E+00 -0.00000000000E+00 -0.28983579239E+03  0.28983579239E+03  0.00000000000E+00 0. -1.
          6    2    1    2  501    0 -0.29274696715E+02  0.14387959121E+02 -0.23399017073E+03  0.29250286487E+03  0.17246015403E+03 0.  0.
         24    2    3    3    0    0 -0.64478021899E+02 -0.40061105293E+02 -0.14049807902E+03  0.17863084930E+03  0.80043504720E+02 0.  0.
         -6    2    1    2    0  502  0.29274696715E+02 -0.14387959121E+02  0.26468815025E+03  0.31786669942E+03  0.17296069057E+03 0.  0.
        -24    2    5    5    0    0  0.33953975290E+02 -0.24687700920E+02  0.52711329690E+02  0.10553619576E+03  0.81222221861E+02 0.  0.
          5    1    3    3  501    0  0.35203325184E+02  0.54449064415E+02 -0.93492091702E+02  0.11387201557E+03  0.47000000000E+01 0. -1.
        -11    1    4    4    0    0 -0.40264595533E+02 -0.46624808052E+02 -0.14064275864E+03  0.15354314031E+03  0.00000000000E+00 0.  1.
         12    1    4    4    0    0 -0.24213426366E+02  0.65637027586E+01  0.14467961328E+00  0.25087708992E+02  0.00000000000E+00 0. -1.
         -5    1    5    5    0  502 -0.46792785746E+01  0.10299741799E+02  0.21197682056E+03  0.21233050366E+03  0.47000000000E+01 0.  1.
         11    1    6    6    0    0 -0.26294858694E+02 -0.13040435867E+02  0.11031865923E+02  0.31355615559E+02  0.00000000000E+00 0. -1.
        -12    1    6    6    0    0  0.60248833984E+02 -0.11647265054E+02  0.41679463768E+02  0.74180580205E+02  0.00000000000E+00 0.  1.
</event>
<event>
12    1  0.8297444E-002  0.1885020E+03  0.7818608E-02  0.1161828E+00
         21   -1    0    0  503  502  0.00000000000E+00  0.00000000000E+00  0.56770094964E+02  0.56770094964E+02  0.00000000000E+00 0. -1.
         21   -1    0    0  501  503 -0.00000000000E+00 -0.00000000000E+00 -0.71767918442E+03  0.71767918442E+03  0.00000000000E+00 0. -1.
          6    2    1    2  501    0 -0.20237107650E+02  0.57369064105E+02 -0.49517700344E+03  0.52984269181E+03  0.17841598382E+03 0.  0.
         24    2    3    3    0    0 -0.60529296343E+02  0.68075369151E+02 -0.21891812338E+03  0.25041623592E+03  0.80530086722E+02 0.  0.
         -6    2    1    2    0  502  0.20237107650E+02 -0.57369064105E+02 -0.16573208601E+03  0.24460658757E+03  0.16930596064E+03 0.  0.
        -24    2    5    5    0    0  0.22920128613E+02 -0.10120876759E+03 -0.14431625912E+03  0.19551640684E+03  0.81430557924E+02 0.  0.
          5    1    3    3  501    0  0.40292188693E+02 -0.10706305046E+02 -0.27625888006E+03  0.27942645588E+03  0.47000000000E+01 0. -1.
        -11    1    4    4    0    0  0.52849411460E+01 -0.11243527377E+02 -0.58572940989E+01  0.13735188566E+02  0.00000000000E+00 0.  1.
         12    1    4    4    0    0 -0.65814237489E+02  0.79318896528E+02 -0.21306082929E+03  0.23668104736E+03  0.00000000000E+00 0. -1.
         -5    1    5    5    0  502 -0.26830209626E+01  0.43839703485E+02 -0.21415826892E+02  0.49090180735E+02  0.47000000000E+01 0.  1.
         13    1    6    6    0    0 -0.18047461583E+02 -0.26375478494E+02 -0.52797407146E+01  0.32392165679E+02  0.00000000000E+00 0. -1.
        -14    1    6    6    0    0  0.40967590196E+02 -0.74833289097E+02 -0.13903651840E+03  0.16312424116E+03  0.00000000000E+00 0.  1.
</event>
<event>
12    1  0.8297444E-002  0.2757905E+03  0.7818608E-02  0.1098152E+00
         21   -1    0    0  501  502  0.00000000000E+00  0.00000000000E+00  0.18253545321E+03  0.18253545321E+03  0.00000000000E+00 0.  1.
         21   -1    0    0  502  503 -0.00000000000E+00 -0.00000000000E+00 -0.42114958645E+03  0.42114958645E+03  0.00000000000E+00 0.  1.
         -6    2    1    2    0  503 -0.16133279713E+03 -0.14117152551E+03 -0.83511066605E+02  0.28815709173E+03  0.17350141274E+03 0.  0.
        -24    2    3    3    0    0 -0.10540045450E+03 -0.16554770849E+03 -0.77720792685E+02  0.22668968149E+03  0.82658275357E+02 0.  0.
          6    2    1    2  501    0  0.16133279713E+03  0.14117152551E+03 -0.15510306664E+03  0.31552794793E+03  0.17188151035E+03 0.  0.
         24    2    5    5    0    0  0.18173535445E+03  0.12400272787E+03 -0.99465557306E+02  0.25365182651E+03  0.77726677699E+02 0.  0.
          5    1    5    5  501    0 -0.20402557315E+02  0.17168797641E+02 -0.55637509335E+02  0.61876121424E+02  0.47000000000E+01 0. -1.
        -13    1    6    6    0    0  0.18057725310E+03  0.13033524965E+03 -0.10399025086E+03  0.24578322545E+03  0.00000000000E+00 0.  1.
         14    1    6    6    0    0  0.11581013532E+01 -0.63325217837E+01  0.45246935564E+01  0.78686010614E+01  0.00000000000E+00 0. -1.
         -5    1    3    3    0  503 -0.55932342634E+02  0.24376182979E+02 -0.57902739197E+01  0.61467410236E+02  0.47000000000E+01 0.  1.
         11    1    4    4    0    0 -0.35732683766E+02 -0.75911012734E+01  0.18917517664E+01  0.36579068227E+02  0.00000000000E+00 0. -1.
        -12    1    4    4    0    0 -0.69667770734E+02 -0.15795660722E+03 -0.79612544452E+02  0.19011061327E+03  0.00000000000E+00 0.  1.
</event>
<event>
12    1  0.8297444E-002  0.2678438E+03  0.7818608E-02  0.1102655E+00
         21   -1    0    0  503  502  0.00000000000E+00  0.00000000000E+00  0.28369667855E+03  0.28369667855E+03  0.00000000000E+00 0.  1.
         21   -1    0    0  501  503 -0.00000000000E+00 -0.00000000000E+00 -0.10095508595E+04  0.10095508595E+04  0.00000000000E+00 0.  1.
          6    2    1    2  501    0 -0.20392898856E+03 -0.35131253869E+02 -0.92322099056E+03  0.96128940756E+03  0.17005613870E+03 0.  0.
         24    2    3    3    0    0 -0.19678467904E+03 -0.34621569243E+02 -0.92719398433E+03  0.95184612337E+03  0.79996843869E+02 0.  0.
         -6    2    1    2    0  502  0.20392898856E+03  0.35131253869E+02  0.19736680958E+03  0.33195813051E+03  0.16858619611E+03 0.  0.
        -24    2    5    5    0    0  0.26722698809E+02 -0.44378846849E+01  0.57376974233E+02  0.10263950970E+03  0.80678090751E+02 0.  0.
          5    1    3    3  501    0 -0.71443095220E+01 -0.50968462593E+00  0.39729937680E+01  0.94432841980E+01  0.47000000000E+01 0. -1.
        -11    1    4    4    0    0 -0.14730486783E+03  0.72684221919E+01 -0.56718929300E+03  0.58605055084E+03  0.00000000000E+00 0.  1.
         12    1    4    4    0    0 -0.49479811210E+02 -0.41889991435E+02 -0.36000469133E+03  0.36579557252E+03  0.00000000000E+00 0. -1.
         -5    1    5    5    0  502  0.17720628975E+03  0.39569138554E+02  0.13998983534E+03  0.22931862081E+03  0.47000000000E+01 0.  1.
         11    1    6    6    0    0  0.39527171367E+01  0.28815349536E+02 -0.38499145027E+01  0.29338885175E+02  0.00000000000E+00 0. -1.
        -12    1    6    6    0    0  0.22769981673E+02 -0.33253234221E+02  0.61226888735E+02  0.73300624525E+02  0.00000000000E+00 0.  1.
</event>
<event>
12    1  0.8297444E-002  0.2281043E+03  0.7818608E-02  0.1128162E+00
         21   -1    0    0  501  502  0.00000000000E+00  0.00000000000E+00  0.33937202535E+02  0.33937202535E+02  0.00000000000E+00 0. -1.
         21   -1    0    0  502  503 -0.00000000000E+00 -0.00000000000E+00 -0.15349266874E+04  0.15349266874E+04  0.00000000000E+00 0.  1.
         -6    2    1    2    0  503 -0.10539005924E+02 -0.15076092377E+03 -0.81077715121E+03  0.84225361705E+03  0.17085561077E+03 0.  0.
        -24    2    3    3    0    0  0.22977298368E+02 -0.11221837584E+02 -0.26140092368E+03  0.27442368776E+03  0.79523780234E+02 0.  0.
          6    2    1    2  501    0  0.10539005924E+02  0.15076092377E+03 -0.69021233366E+03  0.72661027289E+03  0.16949777683E+03 0.  0.
         24    2    5    5    0    0 -0.51890173516E+02  0.11090082911E+03 -0.36499534286E+03  0.39303208011E+03  0.79126681234E+02 0.  0.
          5    1    5    5  501    0  0.62429179440E+02  0.39860094656E+02 -0.32521699080E+03  0.33357819278E+03  0.47000000000E+01 0. -1.
        -13    1    6    6    0    0  0.29002431065E+01  0.85510247888E+01 -0.13591389144E+03  0.13621349904E+03  0.00000000000E+00 0.  1.
         14    1    6    6    0    0 -0.54790416623E+02  0.10234980432E+03 -0.22908145142E+03  0.25681858107E+03  0.00000000000E+00 0. -1.
         -5    1    3    3    0  503 -0.33516304292E+02 -0.13953908618E+03 -0.54937622753E+03  0.56782992929E+03  0.47000000000E+01 0.  1.
         13    1    4    4    0    0  0.57654695280E+01 -0.80816760607E+01  0.22612021698E+01  0.10181707228E+02  0.00000000000E+00 0. -1.
        -14    1    4    4    0    0  0.17211828840E+02 -0.31401615234E+01 -0.26366212585E+03  0.26424198053E+03  0.00000000000E+00 0.  1.
</event>
<event>
12    1  0.8297444E-002  0.2441674E+03  0.7818608E-02  0.1117385E+00
         21   -1    0    0  501  502  0.00000000000E+00  0.00000000000E+00  0.33086185508E+02  0.33086185508E+02  0.00000000000E+00 0.  1.
         21   -1    0    0  502  503 -0.00000000000E+00 -0.00000000000E+00 -0.17867138079E+04  0.17867138079E+04  0.00000000000E+00 0. -1.
         -6    2    1    2    0  503  0.13825801270E+03  0.10053033042E+03 -0.87956934648E+03  0.91283074449E+03  0.17434479460E+03 0.  0.
        -24    2    3    3    0    0  0.75760393191E+02  0.56924239309E+02 -0.26428841053E+03  0.29283061242E+03  0.83194936324E+02 0.  0.
          6    2    1    2  501    0 -0.13825801270E+03 -0.10053033042E+03 -0.87405827590E+03  0.90696924891E+03  0.17144597804E+03 0.  0.
         24    2    5    5    0    0 -0.29001797309E+02 -0.97120563822E+02 -0.58125293392E+03  0.59439029024E+03  0.71912000224E+02 0.  0.
          5    1    5    5  501    0 -0.10925621540E+03 -0.34097665939E+01 -0.29280534198E+03  0.31257895867E+03  0.47000000000E+01 0. -1.
        -11    1    6    6    0    0  0.20457033112E+02 -0.27327518250E+02 -0.24780099925E+03  0.25014119750E+03  0.00000000000E+00 0.  1.
         12    1    6    6    0    0 -0.49458830421E+02 -0.69793045572E+02 -0.33345193467E+03  0.34424909274E+03  0.00000000000E+00 0. -1.
         -5    1    3    3    0  503  0.62497619514E+02  0.43606091107E+02 -0.61528093595E+03  0.62000013207E+03  0.47000000000E+01 0.  1.
         13    1    4    4    0    0  0.30521177194E+02 -0.18338331680E+02 -0.10593900181E+03  0.11176273426E+03  0.00000000000E+00 0. -1.
        -14    1    4    4    0    0  0.45239215997E+02  0.75262570989E+02 -0.15834940873E+03  0.18106787816E+03  0.00000000000E+00 0.  1.
</event>
<event>
12    1  0.8297444E-002  0.1835903E+03  0.7818608E-02  0.1165318E+00
         21   -1    0    0  501  502  0.00000000000E+00  0.00000000000E+00  0.81045082564E+02  0.81045082564E+02  0.00000000000E+00 0.  1.
         21   -1    0    0  502  503 -0.00000000000E+00 -0.00000000000E+00 -0.49505083346E+03  0.49505083346E+03  0.00000000000E+00 0.  1.
         -6    2    1    2    0  503  0.52516730110E+02  0.82590314599E+01 -0.33035974098E+03  0.37794572563E+03  0.17572476922E+03 0.  0.
        -24    2    3    3    0    0 -0.15683122248E+01  0.69172371318E+01 -0.41049940678E+02  0.83583291258E+02  0.72462136147E+02 0.  0.
          6    2    1    2  501    0 -0.52516730110E+02 -0.82590314599E+01 -0.83646009910E+02  0.19815019039E+03  0.17158270436E+03 0.  0.
         24    2    5    5    0    0 -0.94761060860E+02 -0.44955073084E+01 -0.24908032202E+02  0.12554862278E+03  0.78372050965E+02 0.  0.
          5    1    5    5  501    0  0.42244330750E+02 -0.37635241515E+01 -0.58737977708E+02  0.72601567613E+02  0.47000000000E+01 0. -1.
        -11    1    6    6    0    0 -0.68318705300E+02 -0.37714274447E+02 -0.37915101909E+01  0.78129300141E+02  0.00000000000E+00 0.  1.
         12    1    6    6    0    0 -0.26442355560E+02  0.33218767138E+02 -0.21116522011E+02  0.47419322640E+02  0.00000000000E+00 0. -1.
         -5    1    3    3    0  503  0.54085042335E+02  0.13417943282E+01 -0.28930980030E+03  0.29436243437E+03  0.47000000000E+01 0.  1.
         11    1    4    4    0    0 -0.36260354600E+02 -0.20583727460E+01 -0.15065682402E+02  0.39319524416E+02  0.00000000000E+00 0. -1.
        -12    1    4    4    0    0  0.34692042375E+02  0.89756098777E+01 -0.25984258276E+02  0.44263766841E+02  0.00000000000E+00 0.  1.
</event>
<event>
12    1  0.8297444E-002  0.2156325E+03  0.7818608E-02  0.1137404E+00
         21   -1    0    0  501  502  0.00000000000E+00  0.00000000000E+00  0.17725455544E+03  0.17725455544E+03  0.00000000000E+00 0.  1.
         21   -1    0    0  502  503 -0.00000000000E+00 -0.00000000000E+00 -0.56403810934E+03  0.56403810934E+03  0.00000000000E+00 0.  1.
         -6    2    1    2    0  503 -0.10950890834E+03  0.68163991881E+02 -0.46486680105E+03  0.51195804682E+03  0.17135159233E+03 0.  0.
        -24    2    3    3    0    0 -0.31253512928E+02 -0.14945753378E+02 -0.28752509705E+03  0.30099997837E+03  0.82037478819E+02 0.  0.
          6    2    1    2  501    0  0.10950890834E+03 -0.68163991881E+02  0.78083247146E+02  0.22933461796E+03  0.17279711431E+03 0.  0.
         24    2    5    5    0    0  0.15180107438E+02 -0.25292146960E+02 -0.18931246808E+02  0.87314127173E+02  0.79970221573E+02 0.  0.
          5    1    5    5  501    0  0.94328800899E+02 -0.42871844920E+02  0.97014493954E+02  0.14202049079E+03  0.47000000000E+01 0. -1.
        -11    1    6    6    0    0 -0.11535669243E+00 -0.34144818259E+02  0.23432396691E+02  0.41412065099E+02  0.00000000000E+00 0.  1.
         12    1    6    6    0    0  0.15295464130E+02  0.88526712982E+01 -0.42363643499E+02  0.45902062074E+02  0.00000000000E+00 0. -1.
         -5    1    3    3    0  503 -0.78255395409E+02  0.83109745259E+02 -0.17734170400E+03  0.21095806845E+03  0.47000000000E+01 0.  1.
         11    1    4    4    0    0 -0.79356390323E+00  0.14921442369E+02 -0.22389387421E+03  0.22439194749E+03  0.00000000000E+00 0. -1.
        -12    1    4    4    0    0 -0.30459949025E+02 -0.29867195747E+02 -0.63631222837E+02  0.76608030885E+02  0.00000000000E+00 0.  1.
</event>
<event>
12    1  0.8297444E-002  0.2037702E+03  0.7818608E-02  0.1146629E+00
         21   -1    0    0  501  502  0.00000000000E+00  0.00000000000E+00  0.11006151956E+03  0.11006151956E+03  0.00000000000E+00 0.  1.
         21   -1    0    0  502  503 -0.00000000000E+00 -0.00000000000E+00 -0.56926373119E+03  0.56926373119E+03  0.00000000000E+00 0.  1.
         -6    2    1    2    0  503 -0.99977234953E+02  0.38765912521E+02 -0.42707023417E+03  0.47319264688E+03  0.17327450092E+03 0.  0.
        -24    2    3    3    0    0  0.35880862149E+01 -0.11368717945E+02 -0.10350307076E+03  0.12974387901E+03  0.77320543020E+02 0.  0.
          6    2    1    2  501    0  0.99977234953E+02 -0.38765912521E+02 -0.32131977463E+02  0.20613260388E+03  0.17308940731E+03 0.  0.
         24    2    5    5    0    0  0.53197953208E+02 -0.13908745093E+02 -0.87614694277E+02  0.12927818411E+03  0.77543786451E+02 0.  0.
          5    1    5    5  501    0  0.46779281745E+02 -0.24857167428E+02  0.55482716813E+02  0.76854419769E+02  0.47000000000E+01 0. -1.
        -13    1    6    6    0    0  0.60065158066E+02 -0.37168904384E+02 -0.68541320761E+02  0.98423896073E+02  0.00000000000E+00 0.  1.
         14    1    6    6    0    0 -0.68672048574E+01  0.23260159291E+02 -0.19073373515E+02  0.30854288033E+02  0.00000000000E+00 0. -1.
         -5    1    3    3    0  503 -0.10356532117E+03  0.50134630465E+02 -0.32356716340E+03  0.34344876787E+03  0.47000000000E+01 0.  1.
         13    1    4    4    0    0 -0.21041807232E+02 -0.31586761533E+02 -0.26165987237E+02  0.46099241250E+02  0.00000000000E+00 0. -1.
        -14    1    4    4    0    0  0.24629893447E+02  0.20218043588E+02 -0.77337083528E+02  0.83644637762E+02  0.00000000000E+00 0.  1.
</event>
<event>
12    1  0.8297444E-002  0.2107130E+03  0.7818608E-02  0.1141569E+00
         21   -1    0    0  501  502  0.00000000000E+00  0.00000000000E+00  0.74309656649E+02  0.74309656649E+02  0.00000000000E+00 0.  1.
         21   -1    0    0  502  503 -0.00000000000E+00 -0.00000000000E+00 -0.91725209693E+03  0.91725209693E+03  0.00000000000E+00 0. -1.
         -6    2    1    2    0  503  0.42431717230E+02 -0.11037965824E+03 -0.71600786822E+03  0.74556919870E+03  0.17094456152E+03 0.  0.
        -24    2    3    3    0    0 -0.25752902940E+02 -0.10625075178E+03 -0.40797951752E+03  0.43002245869E+03  0.80744002852E+02 0.  0.
          6    2    1    2  501    0 -0.42431717230E+02  0.11037965824E+03 -0.12693457206E+03  0.24599255488E+03  0.17440135290E+03 0.  0.
         24    2    5    5    0    0  0.38536165194E+02  0.70054219317E+02 -0.38862128974E+02  0.11965655748E+03  0.80092427902E+02 0.  0.
          5    1    5    5  501    0 -0.80967882424E+02  0.40325438920E+02 -0.88072443085E+02  0.12633599740E+03  0.47000000000E+01 0. -1.
        -11    1    6    6    0    0 -0.10918638429E+02  0.58061068370E+02 -0.67017596641E+01  0.59457698476E+02  0.00000000000E+00 0.  1.
         12    1    6    6    0    0  0.49454803623E+02  0.11993150947E+02 -0.32160369310E+02  0.60198859002E+02  0.00000000000E+00 0. -1.
         -5    1    3    3    0  503  0.68184620170E+02 -0.41289064579E+01 -0.30802835069E+03  0.31554674000E+03  0.47000000000E+01 0.  1.
         13    1    4    4    0    0 -0.35953120593E+02 -0.11570743012E+03 -0.34933502228E+03  0.36975098926E+03  0.00000000000E+00 0. -1.
        -14    1    4    4    0    0  0.10200217653E+02  0.94566783402E+01 -0.58644495239E+02  0.60271469430E+02  0.00000000000E+00 0.  1.
</event>
<event>
12    1  0.8297444E-002  0.2690386E+03  0.7818608E-02  0.1101889E+00
         21   -1    0    0  503  502  0.00000000000E+00  0.00000000000E+00  0.60817609900E+03  0.60817609900E+03  0.00000000000E+00 0.  1.
         21   -1    0    0  501  503 -0.00000000000E+00 -0.00000000000E+00 -0.18778742038E+03  0.18778742038E+03  0.00000000000E+00 0. -1.
          6    2    1    2  501    0 -0.12926640277E+03  0.15976154232E+03 -0.31062329222E+02  0.27042593137E+03  0.17300798470E+03 0.  0.
         24    2    3    3    0    0 -0.16469230105E+02  0.12547386293E+03 -0.10958798514E+02  0.15073846725E+03  0.81160732031E+02 0.  0.
         -6    2    1    2    0  502  0.12926640277E+03 -0.15976154232E+03  0.45145100784E+03  0.52553758801E+03  0.17363234332E+03 0.  0.
        -24    2    5    5    0    0  0.21600464396E+02 -0.11272989060E+03  0.17003124243E+03  0.22054069473E+03  0.80950394274E+02 0.  0.
          5    1    3    3  501    0 -0.11279717267E+03  0.34287679381E+02 -0.20103530708E+02  0.11968746412E+03  0.47000000000E+01 0. -1.
        -13    1    4    4    0    0 -0.99340941351E+01  0.11921735122E+03  0.17474911587E+02  0.12090010585E+03  0.00000000000E+00 0.  1.
         14    1    4    4    0    0 -0.65351359698E+01  0.62565117096E+01 -0.28433710101E+02  0.29838361400E+02  0.00000000000E+00 0. -1.
         -5    1    5    5    0  502  0.10766593838E+03 -0.47031651719E+02  0.28141976541E+03  0.30499689328E+03  0.47000000000E+01 0.  1.
         11    1    6    6    0    0 -0.22526233695E+02 -0.37058778613E+01  0.28635751437E+02  0.36622001523E+02  0.00000000000E+00 0. -1.
        -12    1    6    6    0    0  0.44126698091E+02 -0.10902401273E+03  0.14139549100E+03  0.18391869321E+03  0.00000000000E+00 0.  1.
</event>
<event>
12    1  0.8297444E-002  0.1954411E+03  0.7818608E-02  0.1154016E+00
         21   -1    0    0  501  502  0.00000000000E+00  0.00000000000E+00  0.48370501508E+03  0.48370501508E+03  0.00000000000E+00 0. -1.
         21   -1    0    0  502  503 -0.00000000000E+00 -0.00000000000E+00 -0.94440867339E+02  0.94440867339E+02  0.00000000000E+00 0. -1.
         -6    2    1    2    0  503  0.79057615840E+02 -0.49149762662E+02  0.75762380434E+02  0.20961194106E+03  0.17184708829E+03 0.  0.
        -24    2    3    3    0    0  0.76392726404E+02 -0.54302797483E+02 -0.10053905903E+02  0.12347147203E+03  0.79746353646E+02 0.  0.
          6    2    1    2  501    0 -0.79057615840E+02  0.49149762662E+02  0.31350176731E+03  0.36853394136E+03  0.16990615656E+03 0.  0.
         24    2    5    5    0    0 -0.99593329689E+02  0.14546884362E+02  0.29964389111E+03  0.32571799267E+03  0.78583115908E+02 0.  0.
          5    1    5    5  501    0  0.20535713849E+02  0.34602878301E+02  0.13857876203E+02  0.42815948697E+02  0.47000000000E+01 0. -1.
        -13    1    6    6    0    0 -0.66766601403E+01 -0.25301097318E+02  0.72958590852E+02  0.77509220711E+02  0.00000000000E+00 0.  1.
         14    1    6    6    0    0 -0.92916669548E+02  0.39847981680E+02  0.22668530026E+03  0.24820877196E+03  0.00000000000E+00 0. -1.
         -5    1    3    3    0  503  0.26648894359E+01  0.51530348202E+01  0.85816286337E+02  0.86140469027E+02  0.47000000000E+01 0.  1.
         11    1    4    4    0    0  0.74576493163E+02 -0.85056414172E+01  0.50081121946E+01  0.75226859938E+02  0.00000000000E+00 0. -1.
        -12    1    4    4    0    0  0.18162332408E+01 -0.45797156065E+02 -0.15062018097E+02  0.48244612093E+02  0.00000000000E+00 0.  1.
</event>
<event>
12    1  0.8297444E-002  0.1899708E+03  0.7818608E-02  0.1158802E+00
         21   -1    0    0  501  502  0.00000000000E+00  0.00000000000E+00  0.10932236059E+04  0.10932236059E+04  0.00000000000E+00 0. -1.
         21   -1    0    0  502  503 -0.00000000000E+00 -0.00000000000E+00 -0.51754924902E+02  0.51754924902E+02  0.00000000000E+00 0. -1.
         -6    2    1    2    0  503 -0.58082791397E+02  0.53631390317E+02  0.17279713507E+03  0.25577710974E+03  0.17121081535E+03 0.  0.
        -24    2    3    3    0    0 -0.63945150783E+02  0.90854015769E+02  0.86955813582E+02  0.16191170835E+03  0.79439620427E+02 0.  0.
          6    2    1    2  501    0  0.58082791397E+02 -0.53631390317E+02  0.86867154596E+03  0.88920142110E+03  0.17273961862E+03 0.  0.
         24    2    5    5    0    0  0.35433863327E+02 -0.96082943369E+01  0.19666128615E+03  0.21535359984E+03  0.79709682630E+02 0.  0.
          5    1    5    5  501    0  0.22648928071E+02 -0.44023095980E+02  0.67201025981E+03  0.67384782125E+03  0.47000000000E+01 0. -1.
        -11    1    6    6    0    0  0.52121166030E+02  0.14466625154E+02  0.92530648328E+02  0.10718124869E+03  0.00000000000E+00 0.  1.
         12    1    6    6    0    0 -0.16687302703E+02 -0.24074919491E+02  0.10413063782E+03  0.10817235115E+03  0.00000000000E+00 0. -1.
         -5    1    3    3    0  503  0.58623593856E+01 -0.37222625452E+02  0.85841321492E+02  0.93865401392E+02  0.47000000000E+01 0.  1.
         11    1    4    4    0    0 -0.63396352526E+02  0.30519920785E+02  0.69972188280E+02  0.99230389554E+02  0.00000000000E+00 0. -1.
        -12    1    4    4    0    0 -0.54879825691E+00  0.60334094983E+02  0.16983625302E+02  0.62681318791E+02  0.00000000000E+00 0.  1.
</event>
<event>
12    1  0.8297444E-002  0.2096033E+03  0.7818608E-02  0.1142324E+00
         21   -1    0    0  501  502  0.00000000000E+00  0.00000000000E+00  0.66743659671E+03  0.66743659671E+03  0.00000000000E+00 0.  1.
         21   -1    0    0  502  503 -0.00000000000E+00 -0.00000000000E+00 -0.99245152948E+02  0.99245152948E+02  0.00000000000E+00 0.  1.
         -6    2    1    2    0  503 -0.50763284255E+02  0.10365915651E+03  0.58350069135E+02  0.21543610239E+03  0.17229582667E+03 0.  0.
        -24    2    3    3    0    0  0.47348894028E+01 -0.99672032870E+01  0.20000313855E+02  0.83209816612E+02  0.80013103348E+02 0.  0.
          6    2    1    2  501    0  0.50763284255E+02 -0.10365915651E+03  0.50984137463E+03  0.55124564727E+03  0.17496115168E+03 0.  0.
         24    2    5    5    0    0 -0.38506066867E+02 -0.65480496579E+02  0.22406428429E+03  0.24938928659E+03  0.78865709608E+02 0.  0.
          5    1    5    5  501    0  0.89269351122E+02 -0.38178659929E+02  0.28577709034E+03  0.30185636069E+03  0.47000000000E+01 0. -1.
        -13    1    6    6    0    0  0.18946799265E+02 -0.44376203924E+02  0.95365642764E+02  0.10687766136E+03  0.00000000000E+00 0.  1.
         14    1    6    6    0    0 -0.57452866133E+02 -0.21104292655E+02  0.12869864152E+03  0.14251162523E+03  0.00000000000E+00 0. -1.
         -5    1    3    3    0  503 -0.55498173657E+02  0.11362635980E+03  0.38349755280E+02  0.13222628577E+03  0.47000000000E+01 0.  1.
         11    1    4    4    0    0 -0.26678429876E+02 -0.21883737626E+02  0.32462260789E+02  0.47375468004E+02  0.00000000000E+00 0. -1.
        -12    1    4    4    0    0  0.31413319278E+02  0.11916534340E+02 -0.12461946934E+02  0.35834348608E+02  0.00000000000E+00 0.  1.
</event>
<event>
12    1  0.8297444E-002  0.2000254E+03  0.7818608E-02  0.1149853E+00
         21   -1    0    0  503  502  0.00000000000E+00  0.00000000000E+00  0.43765566601E+03  0.43765566601E+03  0.00000000000E+00 0.  1.
         21   -1    0    0  501  503 -0.00000000000E+00 -0.00000000000E+00 -0.20675663228E+03  0.20675663228E+03  0.00000000000E+00 0.  1.
          6    2    1    2  501    0 -0.83500261877E+02  0.56721726271E+02 -0.12542548723E+03  0.23609683443E+03  0.17268617320E+03 0.  0.
         24    2    3    3    0    0 -0.74936466317E+02  0.97553020256E+02 -0.58932834641E+02  0.15745908261E+03  0.78665227084E+02 0.  0.
         -6    2    1    2    0  502  0.83500261877E+02 -0.56721726271E+02  0.35632452096E+03  0.40831546386E+03  0.17194390314E+03 0.  0.
        -24    2    5    5    0    0  0.36826394230E+02 -0.31391270025E+02  0.33942785555E+03  0.35238989514E+03  0.81398857061E+02 0.  0.
          5    1    3    3  501    0 -0.85637955599E+01 -0.40831293985E+02 -0.66492652590E+02  0.78637751820E+02  0.47000000000E+01 0. -1.
        -11    1    4    4    0    0 -0.12046488102E+02  0.16697287844E+00 -0.37732243384E+02  0.39608937707E+02  0.00000000000E+00 0.  1.
         12    1    4    4    0    0 -0.62889978215E+02  0.97386047377E+02 -0.21200591257E+02  0.11785014490E+03  0.00000000000E+00 0. -1.
         -5    1    5    5    0  502  0.46673867646E+02 -0.25330456245E+02  0.16896665413E+02  0.55925568721E+02  0.47000000000E+01 0.  1.
         11    1    6    6    0    0  0.30786896262E+02 -0.58333492129E+02  0.21285431434E+03  0.22283982682E+03  0.00000000000E+00 0. -1.
        -12    1    6    6    0    0  0.60394979687E+01  0.26942222104E+02  0.12657354120E+03  0.12955006832E+03  0.00000000000E+00 0.  1.
</event>
<event>
12    1  0.8297444E-002  0.1788525E+03  0.7818608E-02  0.1169063E+00
         21   -1    0    0  501  502  0.00000000000E+00  0.00000000000E+00  0.14230783539E+03  0.14230783539E+03  0.00000000000E+00 0.  1.
         21   -1    0    0  502  503 -0.00000000000E+00 -0.00000000000E+00 -0.25350265797E+03  0.25350265797E+03  0.00000000000E+00 0.  1.
         -6    2    1    2    0  503  0.17730604483E+02  0.43145676335E+02 -0.12298506635E+03  0.21656982231E+03  0.17205010220E+03 0.  0.
        -24    2    3    3    0    0 -0.12599086653E+02 -0.98396780792E+01 -0.11083788860E+02  0.89010722861E+02  0.86859093707E+02 0.  0.
          6    2    1    2  501    0 -0.17730604483E+02 -0.43145676335E+02  0.11790243778E+02  0.17924067105E+03  0.17266234271E+03 0.  0.
         24    2    5    5    0    0  0.42049274259E+02  0.51906654504E+01  0.34918078921E+02  0.98822870796E+02  0.82168139101E+02 0.  0.
          5    1    5    5  501    0 -0.59779878742E+02 -0.48336341786E+02 -0.23127835143E+02  0.80417800256E+02  0.47000000000E+01 0. -1.
        -13    1    6    6    0    0  0.92438417521E+01 -0.28066072260E+02  0.42228448506E+02  0.51540225898E+02  0.00000000000E+00 0.  1.
         14    1    6    6    0    0  0.32805432507E+02  0.33256737710E+02 -0.73103695852E+01  0.47282644898E+02  0.00000000000E+00 0. -1.
         -5    1    3    3    0  503  0.30329691136E+02  0.52985354415E+02 -0.11190127749E+03  0.12755909944E+03  0.47000000000E+01 0.  1.
         11    1    4    4    0    0 -0.69966813472E+01  0.19096101323E+02  0.31335900007E+02  0.37357104610E+02  0.00000000000E+00 0. -1.
        -12    1    4    4    0    0 -0.56024053059E+01 -0.28935779402E+02 -0.42419688867E+02  0.51653618251E+02  0.00000000000E+00 0.  1.
</event>
<event>
12    1  0.8297444E-002  0.2249880E+03  0.7818608E-02  0.1130259E+00
         21   -1    0    0  501  502  0.00000000000E+00  0.00000000000E+00  0.53807156668E+03  0.53807156668E+03  0.00000000000E+00 0.  1.
         21   -1    0    0  502  503 -0.00000000000E+00 -0.00000000000E+00 -0.11747895800E+03  0.11747895800E+03  0.00000000000E+00 0. -1.
         -6    2    1    2    0  503 -0.21894825530E+02 -0.14370336337E+03  0.63790205978E+02  0.23385635149E+03  0.17172525360E+03 0.  0.
        -24    2    3    3    0    0 -0.46604349468E+02 -0.12458128078E+03 -0.77827585235E+01  0.15561957074E+03  0.80401607916E+02 0.  0.
          6    2    1    2  501    0  0.21894825530E+02  0.14370336337E+03  0.35680240270E+03  0.42169417318E+03  0.17142923057E+03 0.  0.
         24    2    5    5    0    0 -0.40821928816E+02  0.13103786051E+03  0.22895664790E+03  0.27865420234E+03  0.79935393316E+02 0.  0.
          5    1    5    5  501    0  0.62716754346E+02  0.12665502867E+02  0.12784575480E+03  0.14303997084E+03  0.47000000000E+01 0. -1.
        -11    1    6    6    0    0  0.37066420911E+01  0.95485034541E+02  0.17884697902E+03  0.20277419195E+03  0.00000000000E+00 0.  1.
         12    1    6    6    0    0 -0.44528570907E+02  0.35552825966E+02  0.50109668883E+02  0.75880010389E+02  0.00000000000E+00 0. -1.
         -5    1    3    3    0  503  0.24709523938E+02 -0.19122082593E+02  0.71572964501E+02  0.78236780758E+02  0.47000000000E+01 0.  1.
         11    1    4    4    0    0 -0.40956872903E+02 -0.90482563806E+02  0.30639346241E+02  0.10393906546E+03  0.00000000000E+00 0. -1.
        -12    1    4    4    0    0 -0.56474765652E+01 -0.34098716974E+02 -0.38422104764E+02  0.51680505274E+02  0.00000000000E+00 0.  1.
</event>
<event>
12    1  0.8297444E-002  0.2836175E+03  0.7818608E-02  0.1095713E+00
         21   -1    0    0  503  502  0.00000000000E+00  0.00000000000E+00  0.54613383450E+02  0.54613383450E+02  0.00000000000E+00 0.  1.
         21   -1    0    0  501  503 -0.00000000000E+00 -0.00000000000E+00 -0.15691240365E+04  0.15691240365E+04  0.00000000000E+00 0. -1.
          6    2    1    2  501    0  0.13559303291E+03 -0.15723906260E+03 -0.10418545246E+04  0.10797683811E+04  0.19320795278E+03 0.  0.
         24    2    3    3    0    0 -0.16089437424E+02 -0.55192186415E+02 -0.43783835815E+03  0.44867507891E+03  0.79384199469E+02 0.  0.
         -6    2    1    2    0  502 -0.13559303291E+03  0.15723906260E+03 -0.47265612843E+03  0.54396903882E+03  0.17143192841E+03 0.  0.
        -24    2    5    5    0    0 -0.53553127059E+02  0.14400241957E+02 -0.11525592213E+03  0.15040777003E+03  0.79140794242E+02 0.  0.
          5    1    3    3  501    0  0.15168247033E+03 -0.10204687619E+03 -0.60401616648E+03  0.63109330223E+03  0.47000000000E+01 0. -1.
        -13    1    4    4    0    0 -0.12426227403E+02 -0.58416791751E+02 -0.15983233104E+03  0.17062621935E+03  0.00000000000E+00 0.  1.
         14    1    4    4    0    0 -0.36632100215E+01  0.32246053357E+01 -0.27800602712E+03  0.27804885956E+03  0.00000000000E+00 0. -1.
         -5    1    5    5    0  502 -0.82039905847E+02  0.14283882065E+03 -0.35740020629E+03  0.39356126879E+03  0.47000000000E+01 0.  1.
         11    1    6    6    0    0 -0.18293492638E+02  0.22311008241E+02  0.79301213769E+00  0.28862810498E+02  0.00000000000E+00 0. -1.
        -12    1    6    6    0    0 -0.35259634421E+02 -0.79107662838E+01 -0.11604893427E+03  0.12154495954E+03  0.00000000000E+00 0.  1.
</event>
<event>
12    1  0.8297444E-002  0.2707330E+03  0.7818608E-02  0.1100932E+00
         21   -1    0    0  501  502  0.00000000000E+00  0.00000000000E+00  0.10535055801E+03  0.10535055801E+03  0.00000000000E+00 0. -1.
         21   -1    0    0  502  503 -0.00000000000E+00 -0.00000000000E+00 -0.70797979380E+03  0.70797979380E+03  0.00000000000E+00 0.  1.
         -6    2    1    2    0  503 -0.20834135132E+03 -0.16254389412E+02 -0.35777610374E+03  0.44866481630E+03  0.17212220405E+03 0.  0.
        -24    2    3    3    0    0 -0.64276154771E+02  0.21307126321E+02 -0.75158464964E+02  0.12919577543E+03  0.80357549922E+02 0.  0.
          6    2    1    2  501    0  0.20834135132E+03  0.16254389412E+02 -0.24485313205E+03  0.36466553551E+03  0.17134051673E+03 0.  0.
         24    2    5    5    0    0  0.16567040120E+03  0.26380205280E+02 -0.25916145796E+03  0.31829571428E+03  0.77491311572E+02 0.  0.
          5    1    5    5  501    0  0.42670950117E+02 -0.10125815868E+02  0.14308325916E+02  0.46369821235E+02  0.47000000000E+01 0. -1.
        -13    1    6    6    0    0  0.65894549403E+02 -0.19425928586E+02 -0.14193289729E+03  0.15768451312E+03  0.00000000000E+00 0.  1.
         14    1    6    6    0    0  0.99775851801E+02  0.45806133866E+02 -0.11722856067E+03  0.16061120116E+03  0.00000000000E+00 0. -1.
         -5    1    3    3    0  503 -0.14406519655E+03 -0.37561515733E+02 -0.28261763878E+03  0.31946904086E+03  0.47000000000E+01 0.  1.
         11    1    4    4    0    0 -0.18642902669E+02 -0.29340879906E+02 -0.13554421791E+02  0.37311759589E+02  0.00000000000E+00 0. -1.
        -12    1    4    4    0    0 -0.45633252101E+02  0.50648006227E+02 -0.61604043173E+02  0.91884015842E+02  0.00000000000E+00 0.  1.
</event>
<event>
12    1  0.8297444E-002  0.2726037E+03  0.7818608E-02  0.1100408E+00
         21   -1    0    0  503  502  0.00000000000E+00  0.00000000000E+00  0.24174031567E+03  0.24174031567E+03  0.00000000000E+00 0. -1.
         21   -1    0    0  501  503 -0.00000000000E+00 -0.00000000000E+00 -0.31415002834E+03  0.31415002834E+03  0.00000000000E+00 0.  1.
          6    2    1    2  501    0  0.16195109450E+03  0.12582427208E+03 -0.89752637109E+02  0.28699877293E+03  0.17959079971E+03 0.  0.
         24    2    3    3    0    0  0.14834038477E+03  0.12742680008E+03 -0.13283692300E+03  0.24154368294E+03  0.49550413955E+02 0.  0.
         -6    2    1    2    0  502 -0.16195109450E+03 -0.12582427208E+03  0.17342924440E+02  0.26889157107E+03  0.17303755521E+03 0.  0.
        -24    2    5    5    0    0 -0.77067164967E+02 -0.14012100404E+03  0.32543648036E+02  0.18135397895E+03  0.79100777256E+02 0.  0.
          5    1    3    3  501    0  0.13610709729E+02 -0.16025280023E+01  0.43084285890E+02  0.45455089990E+02  0.47000000000E+01 0. -1.
        -11    1    4    4    0    0  0.38858912276E+02  0.10435103317E+02 -0.16275314261E+02  0.43402676171E+02  0.00000000000E+00 0.  1.
         12    1    4    4    0    0  0.10948147249E+03  0.11699169677E+03 -0.11656160874E+03  0.19814100677E+03  0.00000000000E+00 0. -1.
         -5    1    5    5    0  502 -0.84883929532E+02  0.14296731959E+02 -0.15200723597E+02  0.87537592127E+02  0.47000000000E+01 0.  1.
         13    1    6    6    0    0 -0.93663449028E+02 -0.12019493279E+03  0.25680045580E+02  0.15452872967E+03  0.00000000000E+00 0. -1.
        -14    1    6    6    0    0  0.16596284060E+02 -0.19926071256E+02  0.68636024561E+01  0.26825249281E+02  0.00000000000E+00 0.  1.
</event>
<event>
12    1  0.8297444E-002  0.1960804E+03  0.7818608E-02  0.1153657E+00
         21   -1    0    0  501  502  0.00000000000E+00  0.00000000000E+00  0.48876565439E+02  0.48876565439E+02  0.00000000000E+00 0.  1.
         21   -1    0    0  502  503 -0.00000000000E+00 -0.00000000000E+00 -0.79811741763E+03  0.79811741763E+03  0.00000000000E+00 0.  1.
         -6    2    1    2    0  503  0.93142712629E+02 -0.11062338111E+02 -0.30687337462E+03  0.36416860561E+03  0.17219049051E+03 0.  0.
        -24    2    3    3    0    0  0.87240398645E+02 -0.52370273739E+02 -0.13063512242E+03  0.18299687936E+03  0.77902438457E+02 0.  0.
          6    2    1    2  501    0 -0.93142712629E+02  0.11062338111E+02 -0.44236747757E+03  0.48282537746E+03  0.16921412371E+03 0.  0.
         24    2    5    5    0    0 -0.11846912450E+03 -0.27482935665E+02 -0.36339985779E+03  0.39125496607E+03  0.78935078468E+02 0.  0.
          5    1    5    5  501    0  0.25326411876E+02  0.38545273775E+02 -0.78967619775E+02  0.91570411389E+02  0.47000000000E+01 0. -1.
        -11    1    6    6    0    0 -0.48997592764E+02 -0.42115205180E+02 -0.24337097522E+03  0.25180128313E+03  0.00000000000E+00 0.  1.
         12    1    6    6    0    0 -0.69471531741E+02  0.14632269516E+02 -0.12002888257E+03  0.13945368294E+03  0.00000000000E+00 0. -1.
         -5    1    3    3    0  503  0.59023139836E+01  0.41307935628E+02 -0.17623825219E+03  0.18117172625E+03  0.47000000000E+01 0.  1.
         13    1    4    4    0    0  0.36646936688E+02 -0.33814665694E+02 -0.11733513942E+03  0.12749103705E+03  0.00000000000E+00 0. -1.
        -14    1    4    4    0    0  0.50593461958E+02 -0.18555608045E+02 -0.13299983001E+02  0.55505842311E+02  0.00000000000E+00 0.  1.
</event>
<event>
12    1  0.8297444E-002  0.2571327E+03  0.7818608E-02  0.1109563E+00
         21   -1    0    0  501  502  0.00000000000E+00  0.00000000000E+00  0.32375828173E+03  0.32375828173E+03  0.00000000000E+00 0. -1.
         21   -1    0    0  502  503 -0.00000000000E+00 -0.00000000000E+00 -0.20072108795E+03  0.20072108795E+03  0.00000000000E+00 0. -1.
         -6    2    1    2    0  503  0.50371139634E+02  0.18469201091E+03  0.63877261652E+02  0.26062878938E+03  0.16492019494E+03 0.  0.
        -24    2    3    3    0    0 -0.31785960692E+02  0.60405029871E+02  0.28159798260E+02  0.10734842541E+03  0.77920441920E+02 0.  0.
          6    2    1    2  501    0 -0.50371139634E+02 -0.18469201091E+03  0.59159932133E+02  0.26385058030E+03  0.17166490775E+03 0.  0.
         24    2    5    5    0    0 -0.20229750841E+02 -0.20351873211E+03  0.38441869071E+02  0.22244675334E+03  0.78585390712E+02 0.  0.
          5    1    5    5  501    0 -0.30141388793E+02  0.18826721208E+02  0.20718063062E+02  0.41403826959E+02  0.47000000000E+01 0. -1.
        -11    1    6    6    0    0  0.24565587844E+02 -0.34273064052E+02  0.19154054396E+02  0.46314024069E+02  0.00000000000E+00 0.  1.
         12    1    6    6    0    0 -0.44795338685E+02 -0.16924566806E+03  0.19287814676E+02  0.17613272927E+03  0.00000000000E+00 0. -1.
         -5    1    3    3    0  503  0.82157100326E+02  0.12428698104E+03  0.35717463392E+02  0.15328036397E+03  0.47000000000E+01 0.  1.
         13    1    4    4    0    0 -0.19841685615E+02  0.45856997965E+02  0.55165691433E+02  0.74429901664E+02  0.00000000000E+00 0. -1.
        -14    1    4    4    0    0 -0.11944275077E+02  0.14548031906E+02 -0.27005893174E+02  0.32918523745E+02  0.00000000000E+00 0.  1.
</event>
<event>
12    1  0.8297444E-002  0.2313915E+03  0.7818608E-02  0.1125730E+00
         21   -1    0    0  501  502  0.00000000000E+00  0.00000000000E+00  0.69240636226E+03  0.69240636226E+03  0.00000000000E+00 0. -1.
         21   -1    0    0  502  503 -0.00000000000E+00 -0.00000000000E+00 -0.18016142385E+03  0.18016142385E+03  0.00000000000E+00 0. -1.
         -6    2    1    2    0  503  0.15944166158E+01  0.15464631878E+03 -0.73603610101E+02  0.24281577393E+03  0.17211618916E+03 0.  0.
        -24    2    3    3    0    0  0.23898639788E+02  0.41146086179E+02 -0.76374459411E+02  0.12701616780E+03  0.89643200756E+02 0.  0.
          6    2    1    2  501    0 -0.15944166158E+01 -0.15464631878E+03  0.58584854851E+03  0.62975201218E+03  0.17161307927E+03 0.  0.
         24    2    5    5    0    0 -0.47511216377E+02 -0.38988357258E+02  0.18907886677E+03  0.21389940979E+03  0.78896970583E+02 0.  0.
          5    1    5    5  501    0  0.45916799761E+02 -0.11565796153E+03  0.39676968174E+03  0.41585260239E+03  0.47000000000E+01 0. -1.
        -13    1    6    6    0    0 -0.50934679912E+02 -0.35723276610E+02  0.19593198799E+03  0.20557197773E+03  0.00000000000E+00 0.  1.
         14    1    6    6    0    0  0.34234635352E+01 -0.32650806481E+01 -0.68531212235E+01  0.83274320603E+01  0.00000000000E+00 0. -1.
         -5    1    3    3    0  503 -0.22304223172E+02  0.11350023261E+03  0.27708493098E+01  0.11579960613E+03  0.47000000000E+01 0.  1.
         11    1    4    4    0    0 -0.27117091996E+02  0.41878634346E+02 -0.31004262507E+02  0.58740284190E+02  0.00000000000E+00 0. -1.
        -12    1    4    4    0    0  0.51015731784E+02 -0.73254816741E+00 -0.45370196903E+02  0.68275883614E+02  0.00000000000E+00 0.  1.
</event>
<event>
12    1  0.8297444E-002  0.2138470E+03  0.7818608E-02  0.1138560E+00
         21   -1    0    0  503  502  0.00000000000E+00  0.00000000000E+00  0.12920929613E+03  0.12920929613E+03  0.00000000000E+00 0.  1.
         21   -1    0    0  501  503 -0.00000000000E+00 -0.00000000000E+00 -0.35394516419E+03  0.35394516419E+03  0.00000000000E+00 0. -1.
          6    2    1    2  501    0  0.21835285129E+02  0.12433266944E+03 -0.10916483768E+03  0.24007589865E+03  0.17258065639E+03 0.  0.
         24    2    3    3    0    0  0.59670341034E+02  0.36081217135E+02  0.54682703211E+01  0.90467577559E+02  0.57376622242E+02 0.  0.
         -6    2    1    2    0  502 -0.21835285129E+02 -0.12433266944E+03 -0.11557103038E+03  0.24307856166E+03  0.17261266382E+03 0.  0.
        -24    2    5    5    0    0  0.27529295854E+02 -0.13919499798E+02 -0.18236262521E+02  0.87759287518E+02  0.80109404380E+02 0.  0.
          5    1    3    3  501    0 -0.37835055905E+02  0.88251452310E+02 -0.11463310800E+03  0.14960832109E+03  0.47000000000E+01 0. -1.
        -13    1    4    4    0    0 -0.34950598138E+01  0.61228995715E+01  0.18101106615E+02  0.19425637774E+02  0.00000000000E+00 0.  1.
         14    1    4    4    0    0  0.63165400848E+02  0.29958317564E+02 -0.12632836293E+02  0.71041939784E+02  0.00000000000E+00 0. -1.
         -5    1    5    5    0  502 -0.49364580983E+02 -0.11041316965E+03 -0.97334767855E+02  0.15531927414E+03  0.47000000000E+01 0.  1.
         13    1    6    6    0    0 -0.14392112459E+02  0.12837436304E+02 -0.30913823256E+02  0.36436206446E+02  0.00000000000E+00 0. -1.
        -14    1    6    6    0    0  0.41921408313E+02 -0.26756936102E+02  0.12677560735E+02  0.51323081072E+02  0.00000000000E+00 0.  1.
</event>
<event>
12    1  0.8297444E-002  0.1892223E+03  0.7818608E-02  0.1159889E+00
         21   -1    0    0  501  502  0.00000000000E+00  0.00000000000E+00  0.31271001013E+02  0.31271001013E+02  0.00000000000E+00 0.  1.
         21   -1    0    0  502  503 -0.00000000000E+00 -0.00000000000E+00 -0.11259288509E+04  0.11259288509E+04  0.00000000000E+00 0.  1.
         -6    2    1    2    0  503 -0.41397275942E+02  0.67388577670E+02 -0.55056378739E+03  0.58217314931E+03  0.17190153269E+03 0.  0.
        -24    2    3    3    0    0 -0.83823596713E+02  0.16069359374E+02 -0.22448316669E+03  0.24933036953E+03  0.66994935368E+02 0.  0.
          6    2    1    2  501    0  0.41397275942E+02 -0.67388577670E+02 -0.54409406253E+03  0.57502670263E+03  0.16841141589E+03 0.  0.
         24    2    5    5    0    0  0.78545981038E+02 -0.17850994047E+02 -0.25888091242E+03  0.28313180806E+03  0.81585322173E+02 0.  0.
          5    1    5    5  501    0 -0.37148705097E+02 -0.49537583623E+02 -0.28521315011E+03  0.29189489457E+03  0.47000000000E+01 0. -1.
        -11    1    6    6    0    0  0.11964361327E+02 -0.20903111142E+00  0.30062946355E+01  0.12338048606E+02  0.00000000000E+00 0.  1.
         12    1    6    6    0    0  0.66581619711E+02 -0.17641962936E+02 -0.26188720706E+03  0.27079375945E+03  0.00000000000E+00 0. -1.
         -5    1    3    3    0  503  0.42426320771E+02  0.51319218296E+02 -0.32608062069E+03  0.33284277978E+03  0.47000000000E+01 0.  1.
         13    1    4    4    0    0 -0.19443025664E+02 -0.19244655589E+02 -0.26166616541E+02  0.37856040957E+02  0.00000000000E+00 0. -1.
        -14    1    4    4    0    0 -0.64380571048E+02  0.35314014963E+02 -0.19831655015E+03  0.21147432857E+03  0.00000000000E+00 0.  1.
</event>
<event>
12    1  0.8297444E-002  0.1930174E+03  0.7818608E-02  0.1156013E+00
         21   -1    0    0  503  502  0.00000000000E+00  0.00000000000E+00  0.21674979148E+03  0.21674979148E+03  0.00000000000E+00 0.  1.
         21   -1    0    0  501  503 -0.00000000000E+00 -0.00000000000E+00 -0.19400370581E+03  0.19400370581E+03  0.00000000000E+00 0.  1.
          6    2    1    2  501    0 -0.13250853925E+02 -0.85054844313E+02 -0.59476490745E+02  0.20197318362E+03  0.17275937682E+03 0.  0.
         24    2    3    3    0    0 -0.61826075823E+02 -0.58365855462E+02  0.42622856091E+01  0.11737663570E+03  0.80808853443E+02 0.  0.
         -6    2    1    2    0  502  0.13250853925E+02  0.85054844313E+02  0.82222576410E+02  0.20878031367E+03  0.17151896581E+03 0.  0.
        -24    2    5    5    0    0 -0.53187944864E+02  0.57479236095E+02  0.79234785732E+02  0.13663085043E+03  0.79101314509E+02 0.  0.
          5    1    3    3  501    0  0.48575221898E+02 -0.26688988851E+02 -0.63738776354E+02  0.84596547917E+02  0.47000000000E+01 0. -1.
        -11    1    4    4    0    0  0.10583996985E+02 -0.19460695618E+02 -0.21863470080E+02  0.31124764900E+02  0.00000000000E+00 0.  1.
         12    1    4    4    0    0 -0.72410072808E+02 -0.38905159844E+02  0.26125755690E+02  0.86251870802E+02  0.00000000000E+00 0. -1.
         -5    1    5    5    0  502  0.66438798789E+02  0.27575608218E+02  0.29877906776E+01  0.72149463243E+02  0.47000000000E+01 0.  1.
         11    1    6    6    0    0 -0.45817870694E+02  0.72500689761E+02  0.83140902643E+02  0.11944888858E+03  0.00000000000E+00 0. -1.
        -12    1    6    6    0    0 -0.73700741702E+01 -0.15021453666E+02 -0.39061169111E+01  0.17181961845E+02  0.00000000000E+00 0.  1.
</event>
<event>
12    1  0.8297444E-002  0.3104091E+03  0.7818608E-02  0.1080687E+00
         21   -1    0    0  503  502  0.00000000000E+00  0.00000000000E+00  0.36412748108E+03  0.36412748108E+03  0.00000000000E+00 0.  1.
         21   -1    0    0  501  503 -0.00000000000E+00 -0.00000000000E+00 -0.29221325165E+03  0.29221325165E+03  0.00000000000E+00 0.  1.
          6    2    1    2  501    0  0.25322818168E+03 -0.32682252662E+01  0.14373021232E+03  0.34207040114E+03  0.17949538187E+03 0.  0.
         24    2    3    3    0    0  0.46201114010E+02  0.30314160879E+02  0.54705857473E+02  0.11417698491E+03  0.83607187228E+02 0.  0.
         -6    2    1    2    0  502 -0.25322818168E+03  0.32682252662E+01 -0.71815982887E+02  0.31427033158E+03  0.17167735035E+03 0.  0.
        -24    2    5    5    0    0 -0.10741536696E+03  0.44843411810E+02  0.10862018206E+02  0.14150570865E+03  0.79730104093E+02 0.  0.
          5    1    3    3  501    0  0.20702706767E+03 -0.33582386146E+02  0.89024354843E+02  0.22789341623E+03  0.47000000000E+01 0. -1.
        -11    1    4    4    0    0  0.68581802839E+02  0.11405710099E+02  0.29483721138E+02  0.75517174971E+02  0.00000000000E+00 0.  1.
         12    1    4    4    0    0 -0.22380688829E+02  0.18908450780E+02  0.25222136335E+02  0.38659809941E+02  0.00000000000E+00 0. -1.
         -5    1    5    5    0  502 -0.14581281472E+03 -0.41575186544E+02 -0.82678001093E+02  0.17276462293E+03  0.47000000000E+01 0.  1.
         11    1    6    6    0    0 -0.68792998879E+02  0.39335649744E+02 -0.30256369982E+02  0.84824630621E+02  0.00000000000E+00 0. -1.
        -12    1    6    6    0    0 -0.38622368081E+02  0.55077620666E+01  0.41118388188E+02  0.56681078028E+02  0.00000000000E+00 0.  1.
</event>
<event>
12    1  0.8297444E-002  0.1768183E+03  0.7818608E-02  0.1171124E+00
         21   -1    0    0  503  502  0.00000000000E+00  0.00000000000E+00  0.75794750734E+02  0.75794750734E+02  0.00000000000E+00 0.  1.
         21   -1    0    0  501  503 -0.00000000000E+00 -0.00000000000E+00 -0.45600632220E+03  0.45600632220E+03  0.00000000000E+00 0.  1.
          6    2    1    2  501    0  0.46488657673E+02 -0.33601629558E+01 -0.27364717315E+03  0.32535326038E+03  0.16970410329E+03 0.  0.
         24    2    3    3    0    0 -0.13121858334E+02 -0.16205139180E+02 -0.55187423916E+02  0.98493922746E+02  0.78870852394E+02 0.  0.
         -6    2    1    2    0  502 -0.46488657673E+02  0.33601629558E+01 -0.10656439831E+03  0.20644781256E+03  0.17056448146E+03 0.  0.
        -24    2    5    5    0    0 -0.51367676427E+02  0.33643251213E+01  0.48973089410E+01  0.94780417922E+02  0.79431650628E+02 0.  0.
          5    1    3    3  501    0  0.59610516007E+02  0.12844976224E+02 -0.21845974924E+03  0.22685933763E+03  0.47000000000E+01 0. -1.
        -13    1    4    4    0    0  0.13702263197E+02 -0.24602390043E+02 -0.63264183058E+02  0.69248729017E+02  0.00000000000E+00 0.  1.
         14    1    4    4    0    0 -0.26824121531E+02  0.83972508632E+01  0.80767591417E+01  0.29245193729E+02  0.00000000000E+00 0. -1.
         -5    1    5    5    0  502  0.48790187541E+01 -0.41621655166E-02 -0.11146170726E+03  0.11166739464E+03  0.47000000000E+01 0.  1.
         11    1    6    6    0    0 -0.30162724024E+00 -0.32325745140E+02  0.64464189092E+00  0.32333579156E+02  0.00000000000E+00 0. -1.
        -12    1    6    6    0    0 -0.51066049187E+02  0.35690070261E+02  0.42526670500E+01  0.62446838766E+02  0.00000000000E+00 0.  1.
</event>
<event>
12    1  0.8297444E-002  0.2329127E+03  0.7818608E-02  0.1124654E+00
         21   -1    0    0  501  502  0.00000000000E+00  0.00000000000E+00  0.81412205193E+03  0.81412205193E+03  0.00000000000E+00 0.  1.
         21   -1    0    0  502  503 -0.00000000000E+00 -0.00000000000E+00 -0.66888370175E+02  0.66888370175E+02  0.00000000000E+00 0.  1.
         -6    2    1    2    0  503 -0.13536619751E+03  0.79053832250E+02  0.34229438427E+03  0.41386574844E+03  0.17188919805E+03 0.  0.
        -24    2    3    3    0    0 -0.13928421250E+03  0.81326288454E+01  0.26484448680E+03  0.30867190569E+03  0.75296159735E+02 0.  0.
          6    2    1    2  501    0  0.13536619751E+03 -0.79053832250E+02  0.40493929749E+03  0.46714467367E+03  0.17226373868E+03 0.  0.
         24    2    5    5    0    0  0.10022845221E+03 -0.64609546677E+02  0.14470938921E+03  0.20411426916E+03  0.80633066404E+02 0.  0.
          5    1    5    5  501    0  0.35137745303E+02 -0.14444285574E+02  0.26022990828E+03  0.26303040451E+03  0.47000000000E+01 0. -1.
        -11    1    6    6    0    0  0.82242469992E+02 -0.46243059915E+02  0.15062478618E+03  0.17773595774E+03  0.00000000000E+00 0.  1.
         12    1    6    6    0    0  0.17985982213E+02 -0.18366486761E+02 -0.59153969763E+01  0.26378311423E+02  0.00000000000E+00 0. -1.
         -5    1    3    3    0  503  0.39180149915E+01  0.70921203405E+02  0.77449897469E+02  0.10519384275E+03  0.47000000000E+01 0.  1.
         11    1    4    4    0    0 -0.55600177138E+02  0.62533809014E+01  0.18392922484E+03  0.19225099277E+03  0.00000000000E+00 0. -1.
        -12    1    4    4    0    0 -0.83684035362E+02  0.18792479440E+01  0.80915261957E+02  0.11642091292E+03  0.00000000000E+00 0.  1.
</event>
<event>
12    1  0.8297444E-002  0.1893409E+03  0.7818608E-02  0.1159292E+00
         21   -1    0    0  501  502  0.00000000000E+00  0.00000000000E+00  0.16858293312E+04  0.16858293312E+04  0.00000000000E+00 0. -1.
         21   -1    0    0  502  503 -0.00000000000E+00 -0.00000000000E+00 -0.23375180703E+02  0.23375180703E+02  0.00000000000E+00 0. -1.
         -6    2    1    2    0  503  0.62374601378E+02 -0.42423340356E+02  0.56958179328E+03  0.60022777315E+03  0.17366528070E+03 0.  0.
        -24    2    3    3    0    0  0.36642404250E+02 -0.56961903288E+02  0.17093353495E+03  0.20045778972E+03  0.79860677895E+02 0.  0.
          6    2    1    2  501    0 -0.62374601378E+02  0.42423340356E+02  0.10928723572E+04  0.11089767388E+04  0.17253720534E+03 0.  0.
         24    2    5    5    0    0  0.31500660051E+02  0.22453162417E+02  0.44614501783E+03  0.45514976300E+03  0.81360271246E+02 0.  0.
          5    1    5    5  501    0 -0.93875261430E+02  0.19970177939E+02  0.64672733942E+03  0.65382697579E+03  0.47000000000E+01 0. -1.
        -11    1    6    6    0    0  0.31169270536E+02 -0.19559972149E+02  0.32182928686E+03  0.32392623514E+03  0.00000000000E+00 0.  1.
         12    1    6    6    0    0  0.33138951494E+00  0.42013134566E+02  0.12431573097E+03  0.13122352785E+03  0.00000000000E+00 0. -1.
         -5    1    3    3    0  503  0.25732197128E+02  0.14538562933E+02  0.39864825832E+03  0.39976998342E+03  0.47000000000E+01 0.  1.
         11    1    4    4    0    0  0.61539786410E+02 -0.32946514359E+02  0.10677045243E+03  0.12756389627E+03  0.00000000000E+00 0. -1.
        -12    1    4    4    0    0 -0.24897382159E+02 -0.24015388930E+02  0.64163082524E+02  0.72893893454E+02  0.00000000000E+00 0.  1.
</event>
<event>
12    1  0.8297444E-002  0.3163126E+03  0.7818608E-02  0.1077386E+00
         21   -1    0    0  501  502  0.00000000000E+00  0.00000000000E+00  0.25254842666E+03  0.25254842666E+03  0.00000000000E+00 0. -1.
         21   -1    0    0  502  503 -0.00000000000E+00 -0.00000000000E+00 -0.56818412668E+03  0.56818412668E+03  0.00000000000E+00 0.  1.
         -6    2    1    2    0  503  0.26445094429E+03  0.34137859769E+02 -0.38375498753E+03  0.49716817168E+03  0.16973097853E+03 0.  0.
        -24    2    3    3    0    0  0.24020975978E+03  0.74956474841E+02 -0.28936518907E+03  0.39140750595E+03  0.78411869330E+02 0.  0.
          6    2    1    2  501    0 -0.26445094429E+03 -0.34137859769E+02  0.68119287506E+02  0.32356438165E+03  0.17015867988E+03 0.  0.
         24    2    5    5    0    0 -0.10936213672E+03  0.33228490053E+02  0.66645750836E+02  0.15440462098E+03  0.79592219312E+02 0.  0.
          5    1    5    5  501    0 -0.15508880757E+03 -0.67366349823E+02  0.14735366696E+01  0.16915976068E+03  0.47000000000E+01 0. -1.
        -11    1    6    6    0    0  0.12535169832E+02  0.42189526369E+01  0.18940329371E+01  0.13361040560E+02  0.00000000000E+00 0.  1.
         12    1    6    6    0    0 -0.12189730655E+03  0.29009537416E+02  0.64751717899E+02  0.14104358042E+03  0.00000000000E+00 0. -1.
         -5    1    3    3    0  503  0.24241184510E+02 -0.40818615072E+02 -0.94389798464E+02  0.10576066574E+03  0.47000000000E+01 0.  1.
         13    1    4    4    0    0  0.60650723407E+02  0.56636758709E+02 -0.95995236694E+02  0.12689096956E+03  0.00000000000E+00 0. -1.
        -14    1    4    4    0    0  0.17955903638E+03  0.18319716132E+02 -0.19336995238E+03  0.26451653639E+03  0.00000000000E+00 0.  1.
</event>
<event>
12    1  0.8297444E-002  0.2203047E+03  0.7818608E-02  0.1133830E+00
         21   -1    0    0  501  502  0.00000000000E+00  0.00000000000E+00  0.16179755678E+04  0.16179755678E+04  0.00000000000E+00 0. -1.
         21   -1    0    0  502  503 -0.00000000000E+00 -0.00000000000E+00 -0.30705621846E+02  0.30705621846E+02  0.00000000000E+00 0.  1.
         -6    2    1    2    0  503  0.99053516376E+02  0.96249833041E+02  0.65600074250E+03  0.69170863159E+03  0.17043540531E+03 0.  0.
        -24    2    3    3    0    0  0.10145478293E+03  0.63302782517E+02  0.63901149102E+03  0.65426535602E+03  0.73669228151E+02 0.  0.
          6    2    1    2  501    0 -0.99053516376E+02 -0.96249833041E+02  0.93126920343E+03  0.95697255804E+03  0.17163483944E+03 0.  0.
         24    2    5    5    0    0 -0.40050382318E+02  0.17933865143E+02  0.34058698690E+03  0.35245055043E+03  0.79348838728E+02 0.  0.
          5    1    5    5  501    0 -0.59003134058E+02 -0.11418369818E+03  0.59068221653E+03  0.60452200761E+03  0.47000000000E+01 0. -1.
        -11    1    6    6    0    0 -0.57845566448E+02  0.26463282057E+02  0.18529609884E+03  0.19591084478E+03  0.00000000000E+00 0.  1.
         12    1    6    6    0    0  0.17795184130E+02 -0.85294169146E+01  0.15529088806E+03  0.15653970565E+03  0.00000000000E+00 0. -1.
         -5    1    3    3    0  503 -0.24012665559E+01  0.32947050524E+02  0.16989251478E+02  0.37443275566E+02  0.47000000000E+01 0.  1.
         11    1    4    4    0    0  0.10355992059E+03  0.65342217573E+02  0.48477650065E+03  0.50000251813E+03  0.00000000000E+00 0. -1.
        -12    1    4    4    0    0 -0.21051376625E+01 -0.20394350555E+01  0.15423499037E+03  0.15426283789E+03  0.00000000000E+00 0.  1.
</event>
<event>
12    1  0.8297444E-002  0.4426903E+03  0.7818608E-02  0.1030475E+00
         21   -1    0    0  503  502  0.00000000000E+00  0.00000000000E+00  0.31896341641E+03  0.31896341641E+03  0.00000000000E+00 0. -1.
         21   -1    0    0  501  503 -0.00000000000E+00 -0.00000000000E+00 -0.61726306471E+03  0.61726306471E+03  0.00000000000E+00 0.  1.
          6    2    1    2  501    0 -0.14450079866E+03  0.37288816369E+03 -0.83021203985E+02  0.45040786104E+03  0.18986484018E+03 0.  0.
         24    2    3    3    0    0 -0.56902638997E+02  0.17901173212E+03 -0.11677558319E+03  0.23494798911E+03  0.79252193638E+02 0.  0.
         -6    2    1    2    0  502  0.14450079866E+03 -0.37288816369E+03 -0.21527844431E+03  0.48581862008E+03  0.17247857720E+03 0.  0.
        -24    2    5    5    0    0  0.14096523319E+03 -0.23834217739E+03 -0.90638106851E+02  0.30231813949E+03  0.80639943947E+02 0.  0.
          5    1    3    3  501    0 -0.87598159659E+02  0.19387643158E+03  0.33754379204E+02  0.21545987193E+03  0.47000000000E+01 0. -1.
        -13    1    4    4    0    0 -0.61638265850E+02  0.65058665990E+02 -0.56565647532E+02  0.10597914096E+03  0.00000000000E+00 0.  1.
         14    1    4    4    0    0  0.47356268526E+01  0.11395306613E+03 -0.60209935657E+02  0.12896884815E+03  0.00000000000E+00 0. -1.
         -5    1    5    5    0  502  0.35355654694E+01 -0.13454598631E+03 -0.12464033746E+03  0.18350048059E+03  0.47000000000E+01 0.  1.
         13    1    6    6    0    0  0.76000025918E+02 -0.57015537141E+02 -0.19512409927E+02  0.96992316996E+02  0.00000000000E+00 0. -1.
        -14    1    6    6    0    0  0.64965207268E+02 -0.18132664025E+03 -0.71125696924E+02  0.20532582249E+03  0.00000000000E+00 0.  1.
</event>
<event>
12    1  0.8297444E-002  0.1964483E+03  0.7818608E-02  0.1154237E+00
         21   -1    0    0  501  502  0.00000000000E+00  0.00000000000E+00  0.46634589443E+03  0.46634589443E+03  0.00000000000E+00 0. -1.
         21   -1    0    0  502  503 -0.00000000000E+00 -0.00000000000E+00 -0.12345822462E+03  0.12345822462E+03  0.00000000000E+00 0.  1.
         -6    2    1    2    0  503 -0.93550528702E+02 -0.20947899662E+02 -0.16505572445E+01  0.19645526152E+03  0.17146845050E+03 0.  0.
        -24    2    3    3    0    0 -0.80822936726E+02 -0.10380048213E+02 -0.64376024711E+02  0.13141492518E+03  0.80532710749E+02 0.  0.
          6    2    1    2  501    0  0.93550528702E+02  0.20947899662E+02  0.34453822705E+03  0.39334885753E+03  0.16378711152E+03 0.  0.
         24    2    5    5    0    0  0.89774156878E+02  0.32731126503E+01  0.12524850305E+03  0.17326539124E+03  0.79142882032E+02 0.  0.
          5    1    5    5  501    0  0.37763718240E+01  0.17674787012E+02  0.21928972401E+03  0.22008346629E+03  0.47000000000E+01 0. -1.
        -11    1    6    6    0    0  0.79558147106E+02 -0.29780870767E+02  0.84646755492E+02  0.11992277619E+03  0.00000000000E+00 0.  1.
         12    1    6    6    0    0  0.10216009772E+02  0.33053983418E+02  0.40601747554E+02  0.53342615046E+02  0.00000000000E+00 0. -1.
         -5    1    3    3    0  503 -0.12727591976E+02 -0.10567851449E+02  0.62725467467E+02  0.65040336336E+02  0.47000000000E+01 0.  1.
         11    1    4    4    0    0  0.12638860626E+02 -0.11146722067E+02  0.17214792695E+01  0.16939707838E+02  0.00000000000E+00 0. -1.
        -12    1    4    4    0    0 -0.93461797352E+02  0.76667385406E+00 -0.66097503981E+02  0.11447521734E+03  0.00000000000E+00 0.  1.
</event>
<event>
12    1  0.8297444E-002  0.1744980E+03  0.7818608E-02  0.1173372E+00
         21   -1    0    0  503  502  0.00000000000E+00  0.00000000000E+00  0.34713021282E+03  0.34713021282E+03  0.00000000000E+00 0. -1.
         21   -1    0    0  501  503 -0.00000000000E+00 -0.00000000000E+00 -0.16828682723E+03  0.16828682723E+03  0.00000000000E+00 0. -1.
          6    2    1    2  501    0  0.20841578791E+02 -0.15946660356E+02 -0.89262786113E+02  0.19552571849E+03  0.17197032948E+03 0.  0.
         24    2    3    3    0    0  0.75904301018E+02  0.14626467666E+02 -0.43464039786E+02  0.11751139480E+03  0.77099991459E+02 0.  0.
         -6    2    1    2    0  502 -0.20841578791E+02  0.15946660356E+02  0.26810617170E+03  0.31989132156E+03  0.17251339345E+03 0.  0.
        -24    2    5    5    0    0  0.14089766738E+02  0.55722940116E+01  0.41353124355E+02  0.90180936815E+02  0.78695288827E+02 0.  0.
          5    1    3    3  501    0 -0.55062722227E+02 -0.30573128021E+02 -0.45798746327E+02  0.78014323693E+02  0.47000000000E+01 0. -1.
        -13    1    4    4    0    0  0.13386025083E+02  0.32636130878E+02  0.60018319283E+01  0.35781625070E+02  0.00000000000E+00 0.  1.
         14    1    4    4    0    0  0.62518275935E+02 -0.18009663212E+02 -0.49465871714E+02  0.81729769725E+02  0.00000000000E+00 0. -1.
         -5    1    5    5    0  502 -0.34931345529E+02  0.10374366344E+02  0.22675304735E+03  0.22971038474E+03  0.47000000000E+01 0.  1.
         13    1    6    6    0    0  0.20453580803E+02 -0.30319985479E+02  0.39278555344E+02  0.53669874203E+02  0.00000000000E+00 0. -1.
        -14    1    6    6    0    0 -0.63638140652E+01  0.35892279490E+02  0.20745690113E+01  0.36511062612E+02  0.00000000000E+00 0.  1.
</event>
<event>
12    1  0.8297444E-002  0.1917700E+03  0.7818608E-02  0.1156896E+00
         21   -1    0    0  501  502  0.00000000000E+00  0.00000000000E+00  0.31371408498E+03  0.31371408498E+03  0.00000000000E+00 0. -1.
         21   -1    0    0  502  503 -0.00000000000E+00 -0.00000000000E+00 -0.11717969551E+03  0.11717969551E+03  0.00000000000E+00 0. -1.
         -6    2    1    2    0  503 -0.75332507873E+02 -0.36247652429E+02  0.96156507827E+02  0.21452691055E+03  0.17258865056E+03 0.  0.
        -24    2    3    3    0    0  0.53865382431E+01  0.28312995388E+02  0.25574089807E+02  0.89276723378E+02  0.80533587810E+02 0.  0.
          6    2    1    2  501    0  0.75332507873E+02  0.36247652429E+02  0.10037788164E+03  0.21636686995E+03  0.17248195337E+03 0.  0.
         24    2    5    5    0    0 -0.10499787318E+02  0.62188171068E+02  0.61224177897E+02  0.11841179901E+03  0.79343178861E+02 0.  0.
          5    1    5    5  501    0  0.85832295191E+02 -0.25940518640E+02  0.39153703745E+02  0.97955070936E+02  0.47000000000E+01 0. -1.
        -11    1    6    6    0    0 -0.29697370144E+02  0.34167827382E+02 -0.34079503972E+01  0.45398109513E+02  0.00000000000E+00 0.  1.
         12    1    6    6    0    0  0.19197582825E+02  0.28020343687E+02  0.64632128294E+02  0.73013689500E+02  0.00000000000E+00 0. -1.
         -5    1    3    3    0  503 -0.80719046116E+02 -0.64560647817E+02  0.70582418020E+02  0.12525018717E+03  0.47000000000E+01 0.  1.
         13    1    4    4    0    0 -0.26073839833E+02 -0.13962778824E+02  0.21216231345E+02  0.36399626215E+02  0.00000000000E+00 0. -1.
        -14    1    4    4    0    0  0.31460378076E+02  0.42275774212E+02  0.43578584621E+01  0.52877097162E+02  0.00000000000E+00 0.  1.
</event>
<event>
12    1  0.8297444E-002  0.4114017E+03  0.7818608E-02  0.1040280E+00
         21   -1    0    0  503  502  0.00000000000E+00  0.00000000000E+00  0.56340098655E+03  0.56340098655E+03  0.00000000000E+00 0.  1.
         21   -1    0    0  501  503 -0.00000000000E+00 -0.00000000000E+00 -0.99538424754E+03  0.99538424754E+03  0.00000000000E+00 0. -1.
          6    2    1    2  501    0 -0.36164394810E+03 -0.68413620130E+02 -0.86912201968E+03  0.96157392200E+03  0.18380575008E+03 0.  0.
         24    2    3    3    0    0 -0.30150620799E+03  0.90010666417E+01 -0.62947922187E+03  0.70261380527E+03  0.80218800391E+02 0.  0.
         -6    2    1    2    0  502  0.36164394810E+03  0.68413620130E+02  0.43713875869E+03  0.59721131210E+03  0.17350587406E+03 0.  0.
        -24    2    5    5    0    0  0.28679696122E+03  0.83209198828E+02  0.25915854729E+03  0.40351044415E+03  0.80506261679E+02 0.  0.
          5    1    3    3  501    0 -0.60137740111E+02 -0.77414686771E+02 -0.23964279781E+03  0.25896011673E+03  0.47000000000E+01 0. -1.
        -13    1    4    4    0    0 -0.98518600016E+02  0.46227357259E+01 -0.12798384789E+03  0.16157707002E+03  0.00000000000E+00 0.  1.
         14    1    4    4    0    0 -0.20298760797E+03  0.43783309158E+01 -0.50149537397E+03  0.54103673525E+03  0.00000000000E+00 0. -1.
         -5    1    5    5    0  502  0.74846986881E+02 -0.14795578698E+02  0.17798021140E+03  0.19370086795E+03  0.47000000000E+01 0.  1.
         11    1    6    6    0    0  0.13270158868E+03  0.68806244450E+02  0.91133246921E+02  0.17506935656E+03  0.00000000000E+00 0. -1.
        -12    1    6    6    0    0  0.15409537254E+03  0.14402954378E+02  0.16802530037E+03  0.22844108759E+03  0.00000000000E+00 0.  1.
</event>
<event>
12    1  0.8297444E-002  0.1837823E+03  0.7818608E-02  0.1164203E+00
         21   -1    0    0  501  502  0.00000000000E+00  0.00000000000E+00  0.43401126916E+03  0.43401126916E+03  0.00000000000E+00 0.  1.
         21   -1    0    0  502  503 -0.00000000000E+00 -0.00000000000E+00 -0.12903404997E+03  0.12903404997E+03  0.00000000000E+00 0.  1.
         -6    2    1    2    0  503 -0.99731505079E+01  0.62600282888E+02 -0.24912206695E+02  0.18541722619E+03  0.17245483634E+03 0.  0.
        -24    2    3    3    0    0  0.38172544742E+02 -0.15946907433E+02 -0.10664270936E+01  0.90136691538E+02  0.80075207561E+02 0.  0.
          6    2    1    2  501    0  0.99731505079E+01 -0.62600282888E+02  0.32988942589E+03  0.37762809294E+03  0.17250415680E+03 0.  0.
         24    2    5    5    0    0 -0.57356819127E+02 -0.52216606167E+02  0.16374841682E+03  0.19800050473E+03  0.79839070634E+02 0.  0.
          5    1    5    5  501    0  0.67329969635E+02 -0.10383676721E+02  0.16614100907E+03  0.17962758822E+03  0.47000000000E+01 0. -1.
        -11    1    6    6    0    0 -0.83816503245E+01 -0.58283848606E+02  0.11173630085E+03  0.12630225650E+03  0.00000000000E+00 0.  1.
         12    1    6    6    0    0 -0.48975168803E+02  0.60672424391E+01  0.52012115975E+02  0.71698248223E+02  0.00000000000E+00 0. -1.
         -5    1    3    3    0  503 -0.48145695250E+02  0.78547190321E+02 -0.23845779601E+02  0.95280534650E+02  0.47000000000E+01 0.  1.
         13    1    4    4    0    0  0.27144897048E+02 -0.97464033994E+00  0.38093654583E+02  0.46785915392E+02  0.00000000000E+00 0. -1.
        -14    1    4    4    0    0  0.11027647694E+02 -0.14972267093E+02 -0.39160081677E+02  0.43350776147E+02  0.00000000000E+00 0.  1.
</event>
<event>
12    1  0.8297444E-002  0.2014328E+03  0.7818608E-02  0.1148655E+00
         21   -1    0    0  501  502  0.00000000000E+00  0.00000000000E+00  0.14496338709E+03  0.14496338709E+03  0.00000000000E+00 0.  1.
         21   -1    0    0  502  503 -0.00000000000E+00 -0.00000000000E+00 -0.51624680654E+03  0.51624680654E+03  0.00000000000E+00 0. -1.
         -6    2    1    2    0  503 -0.12152504931E+02  0.10309230556E+03 -0.40985410489E+03  0.45667884671E+03  0.17262524407E+03 0.  0.
        -24    2    3    3    0    0  0.12130394120E+02 -0.11413839610E+02 -0.17517783930E+03  0.19438825195E+03  0.82595973973E+02 0.  0.
          6    2    1    2  501    0  0.12152504931E+02 -0.10309230556E+03  0.38570685439E+02  0.20453134693E+03  0.17195833001E+03 0.  0.
         24    2    5    5    0    0  0.74679236646E+01 -0.94463605010E+02  0.89816282278E+02  0.15214240754E+03  0.78110210953E+02 0.  0.
          5    1    5    5  501    0  0.46845812668E+01 -0.86287005533E+01 -0.51245596839E+02  0.52388939388E+02  0.47000000000E+01 0. -1.
        -11    1    6    6    0    0  0.41355404061E+02 -0.36380742281E+02  0.33816683333E+02  0.64632777487E+02  0.00000000000E+00 0.  1.
         12    1    6    6    0    0 -0.33887480397E+02 -0.58082862729E+02  0.55999598944E+02  0.87509630055E+02  0.00000000000E+00 0. -1.
         -5    1    3    3    0  503 -0.24282899051E+02  0.11450614517E+03 -0.23467626559E+03  0.26229059476E+03  0.47000000000E+01 0.  1.
         13    1    4    4    0    0 -0.29075134289E+02  0.10453346029E+02 -0.35172562162E+02  0.46816076364E+02  0.00000000000E+00 0. -1.
        -14    1    4    4    0    0  0.41205528409E+02 -0.21867185640E+02 -0.14000527714E+03  0.14757217558E+03  0.00000000000E+00 0.  1.
</event>
<event>
12    1  0.8297444E-002  0.1780453E+03  0.7818608E-02  0.1170938E+00
         21   -1    0    0  503  502  0.00000000000E+00  0.00000000000E+00  0.18765398949E+03  0.18765398949E+03  0.00000000000E+00 0.  1.
         21   -1    0    0  501  503 -0.00000000000E+00 -0.00000000000E+00 -0.63907692050E+03  0.63907692050E+03  0.00000000000E+00 0.  1.
          6    2    1    2  501    0 -0.77675600631E+01 -0.16908371872E+02 -0.58281443187E+03  0.60940362582E+03  0.17707029433E+03 0.  0.
         24    2    3    3    0    0 -0.63489499002E+02 -0.48859964722E+02 -0.40294079942E+03  0.41834747591E+03  0.78962713546E+02 0.  0.
         -6    2    1    2    0  502  0.77675600631E+01  0.16908371872E+02  0.13139150086E+03  0.21732728417E+03  0.17210808789E+03 0.  0.
        -24    2    5    5    0    0  0.30169709445E+02  0.48779940982E+02  0.14580443467E+03  0.17552446279E+03  0.79121487949E+02 0.  0.
          5    1    3    3  501    0  0.55721938939E+02  0.31951592850E+02 -0.17987363245E+03  0.19105614991E+03  0.47000000000E+01 0. -1.
        -11    1    4    4    0    0 -0.18612900338E+02 -0.46693248580E+02 -0.32087079877E+03  0.32478418839E+03  0.00000000000E+00 0.  1.
         12    1    4    4    0    0 -0.44876598664E+02 -0.21667161423E+01 -0.82070000647E+02  0.93563287526E+02  0.00000000000E+00 0. -1.
         -5    1    5    5    0  502 -0.22402149382E+02 -0.31871569110E+02 -0.14412933811E+02  0.41802821382E+02  0.47000000000E+01 0.  1.
         11    1    6    6    0    0  0.25969233397E+02  0.59777069191E+02  0.58961213924E+02  0.87886994668E+02  0.00000000000E+00 0. -1.
        -12    1    6    6    0    0  0.42004760487E+01 -0.10997128209E+02  0.86843220750E+02  0.87637468118E+02  0.00000000000E+00 0.  1.
</event>
<event>
12    1  0.8297444E-002  0.1883761E+03  0.7818608E-02  0.1161143E+00
         21   -1    0    0  503  502  0.00000000000E+00  0.00000000000E+00  0.39331183488E+03  0.39331183488E+03  0.00000000000E+00 0. -1.
         21   -1    0    0  501  503 -0.00000000000E+00 -0.00000000000E+00 -0.88274739484E+02  0.88274739484E+02  0.00000000000E+00 0. -1.
          6    2    1    2  501    0  0.11877805528E+02  0.61643665351E+02  0.13589089860E+03  0.23227543972E+03  0.17760776963E+03 0.  0.
         24    2    3    3    0    0 -0.15844024151E+02 -0.11437108921E+02  0.58429272234E+01  0.80473383511E+02  0.77845906080E+02 0.  0.
         -6    2    1    2    0  502 -0.11877805528E+02 -0.61643665351E+02  0.16914619679E+03  0.24931113464E+03  0.17205982165E+03 0.  0.
        -24    2    5    5    0    0 -0.33696673530E+02 -0.10449314863E+03  0.10055230733E+03  0.16541028310E+03  0.72079895438E+02 0.  0.
          5    1    3    3  501    0  0.27721829679E+02  0.73080774272E+02  0.13004797138E+03  0.15180205621E+03  0.47000000000E+01 0. -1.
        -13    1    4    4    0    0  0.15366563159E+02 -0.15731515178E+02 -0.27093697233E+02  0.34895275653E+02  0.00000000000E+00 0.  1.
         14    1    4    4    0    0 -0.31210587311E+02  0.42944062562E+01  0.32936624457E+02  0.45578107859E+02  0.00000000000E+00 0. -1.
         -5    1    5    5    0  502  0.21818868002E+02  0.42849483283E+02  0.68593889464E+02  0.83900851547E+02  0.47000000000E+01 0.  1.
         13    1    6    6    0    0 -0.51852688386E+02 -0.60984032730E+02  0.42518155916E+02  0.90639655358E+02  0.00000000000E+00 0. -1.
        -14    1    6    6    0    0  0.18156014857E+02 -0.43509115904E+02  0.58034151412E+02  0.74770627738E+02  0.00000000000E+00 0.  1.
</event>
<event>
12    1  0.8297444E-002  0.2146261E+03  0.7818608E-02  0.1138024E+00
         21   -1    0    0  503  502  0.00000000000E+00  0.00000000000E+00  0.14922412136E+03  0.14922412136E+03  0.00000000000E+00 0. -1.
         21   -1    0    0  501  503 -0.00000000000E+00 -0.00000000000E+00 -0.54196955800E+03  0.54196955800E+03  0.00000000000E+00 0. -1.
          6    2    1    2  501    0  0.12699662699E+03 -0.10811556835E+02 -0.42326547921E+03  0.47440846322E+03  0.17223440727E+03 0.  0.
         24    2    3    3    0    0 -0.18948477098E+02 -0.27535876352E+02 -0.11702564474E+03  0.13472537196E+03  0.57781095963E+02 0.  0.
         -6    2    1    2    0  502 -0.12699662699E+03  0.10811556835E+02  0.30520042575E+02  0.21678521614E+03  0.17268272615E+03 0.  0.
        -24    2    5    5    0    0 -0.36961338315E+02  0.59307801365E+02  0.41653555113E+02  0.11380811169E+03  0.79584620373E+02 0.  0.
          5    1    3    3  501    0  0.14594510409E+03  0.16724319517E+02 -0.30623983447E+03  0.33968309126E+03  0.47000000000E+01 0. -1.
        -13    1    4    4    0    0 -0.26651247282E+02  0.92330641629E+01 -0.61815663494E+02  0.67946410565E+02  0.00000000000E+00 0.  1.
         14    1    4    4    0    0  0.77027701839E+01 -0.36768940515E+02 -0.55209981249E+02  0.66778961392E+02  0.00000000000E+00 0. -1.
         -5    1    5    5    0  502 -0.90035288676E+02 -0.48496244530E+02 -0.11133512538E+02  0.10297710445E+03  0.47000000000E+01 0.  1.
         11    1    6    6    0    0 -0.29147452473E+02  0.28744361049E+02  0.63417599652E+02  0.75482476267E+02  0.00000000000E+00 0. -1.
        -12    1    6    6    0    0 -0.78138858420E+01  0.30563440315E+02 -0.21764044538E+02  0.38325635422E+02  0.00000000000E+00 0.  1.
</event>
<event>
12    1  0.8297444E-002  0.2268105E+03  0.7818608E-02  0.1129150E+00
         21   -1    0    0  501  502  0.00000000000E+00  0.00000000000E+00  0.29013083946E+03  0.29013083946E+03  0.00000000000E+00 0.  1.
         21   -1    0    0  502  503 -0.00000000000E+00 -0.00000000000E+00 -0.26843041144E+03  0.26843041144E+03  0.00000000000E+00 0. -1.
         -6    2    1    2    0  503 -0.13621151335E+03  0.57827884722E+02 -0.15283624687E+03  0.27236894932E+03  0.17008317254E+03 0.  0.
        -24    2    3    3    0    0 -0.22336665523E+02  0.19812185895E+02 -0.11823456654E+03  0.14734079007E+03  0.82694899231E+02 0.  0.
          6    2    1    2  501    0  0.13621151335E+03 -0.57827884722E+02  0.17453667489E+03  0.28619230158E+03  0.17188758530E+03 0.  0.
         24    2    5    5    0    0  0.31233784732E+02 -0.43845596617E+01  0.13441942878E+03  0.16166119729E+03  0.84089156289E+02 0.  0.
          5    1    5    5  501    0  0.10497772861E+03 -0.53443325060E+02  0.40117246110E+02  0.12453110428E+03  0.47000000000E+01 0. -1.
        -13    1    6    6    0    0  0.24968747276E+02 -0.26823671848E+02  0.13339956883E+03  0.13834157971E+03  0.00000000000E+00 0.  1.
         14    1    6    6    0    0  0.62650374562E+01  0.22439112187E+02  0.10198599473E+01  0.23319617586E+02  0.00000000000E+00 0. -1.
         -5    1    3    3    0  503 -0.11387484782E+03  0.38015698827E+02 -0.34601680334E+02  0.12502815925E+03  0.47000000000E+01 0.  1.
         13    1    4    4    0    0 -0.12638918283E+02  0.33524830501E+02 -0.12439460486E+03  0.12945143581E+03  0.00000000000E+00 0. -1.
        -14    1    4    4    0    0 -0.96977472399E+01 -0.13712644606E+02  0.61600383264E+01  0.17889354259E+02  0.00000000000E+00 0.  1.
</event>
<event>
12    1  0.8297444E-002  0.3113645E+03  0.7818608E-02  0.1079880E+00
         21   -1    0    0  501  502  0.00000000000E+00  0.00000000000E+00  0.36142015464E+03  0.36142015464E+03  0.00000000000E+00 0.  1.
         21   -1    0    0  502  503 -0.00000000000E+00 -0.00000000000E+00 -0.31115043058E+03  0.31115043058E+03  0.00000000000E+00 0. -1.
         -6    2    1    2    0  503 -0.18002436159E+03 -0.18437743184E+03 -0.10173753366E+03  0.32608242148E+03  0.17197503221E+03 0.  0.
        -24    2    3    3    0    0 -0.68631224295E+02 -0.15818126110E+03 -0.92785667982E+02  0.21120467647E+03  0.79162357663E+02 0.  0.
          6    2    1    2  501    0  0.18002436159E+03  0.18437743184E+03  0.15200725772E+03  0.34648816374E+03  0.17476851282E+03 0.  0.
         24    2    5    5    0    0  0.40323194580E+02  0.21498351277E+02  0.23984344405E+02  0.96572243311E+02  0.81626039184E+02 0.  0.
          5    1    5    5  501    0  0.13970116701E+03  0.16287908057E+03  0.12802291331E+03  0.24991592043E+03  0.47000000000E+01 0. -1.
        -13    1    6    6    0    0  0.51879883135E+02  0.29681330260E+02  0.42443513143E+02  0.73307267362E+02  0.00000000000E+00 0.  1.
         14    1    6    6    0    0 -0.11556688555E+02 -0.81829789831E+01 -0.18459168739E+02  0.23264975949E+02  0.00000000000E+00 0. -1.
         -5    1    3    3    0  503 -0.11139313730E+03 -0.26196170744E+02 -0.89518656808E+01  0.11487774501E+03  0.47000000000E+01 0.  1.
         11    1    4    4    0    0 -0.13491157463E+01  0.40490527044E+01 -0.21069850950E+02  0.21497757096E+02  0.00000000000E+00 0. -1.
        -12    1    4    4    0    0 -0.67282108549E+02 -0.16223031380E+03 -0.71715817032E+02  0.18970691938E+03  0.00000000000E+00 0.  1.
</event>
<event>
12    1  0.8297444E-002  0.2086514E+03  0.7818608E-02  0.1144369E+00
         21   -1    0    0  501  502  0.00000000000E+00  0.00000000000E+00  0.51464751652E+02  0.51464751652E+02  0.00000000000E+00 0. -1.
         21   -1    0    0  502  503 -0.00000000000E+00 -0.00000000000E+00 -0.81235454484E+03  0.81235454484E+03  0.00000000000E+00 0.  1.
         -6    2    1    2    0  503  0.10380724521E+03 -0.76480179723E+01 -0.37814500861E+03  0.43189011179E+03  0.18083413612E+03 0.  0.
        -24    2    3    3    0    0  0.69494275200E+01 -0.57152781816E+02 -0.15411994146E+03  0.18280884151E+03  0.79695552997E+02 0.  0.
          6    2    1    2  501    0 -0.10380724521E+03  0.76480179723E+01 -0.38274478457E+03  0.43192918469E+03  0.17098191173E+03 0.  0.
         24    2    5    5    0    0 -0.17372226151E+02 -0.99214938067E+01 -0.29845105998E+03  0.30983404855E+03  0.80770490650E+02 0.  0.
          5    1    5    5  501    0 -0.86435019058E+02  0.17569511779E+02 -0.84293724590E+02  0.12209513614E+03  0.47000000000E+01 0. -1.
        -13    1    6    6    0    0  0.33698561007E+01 -0.43546540928E+02 -0.15279383802E+03  0.15891385746E+03  0.00000000000E+00 0.  1.
         14    1    6    6    0    0 -0.20742082251E+02  0.33625047121E+02 -0.14565722196E+03  0.15092019109E+03  0.00000000000E+00 0. -1.
         -5    1    3    3    0  503  0.96857817689E+02  0.49504763844E+02 -0.22402506716E+03  0.24908127028E+03  0.47000000000E+01 0.  1.
         11    1    4    4    0    0  0.10554519513E+02  0.89927445184E+01  0.12342315423E+01  0.13920871511E+02  0.00000000000E+00 0. -1.
        -12    1    4    4    0    0 -0.36050919929E+01 -0.66145526334E+02 -0.15535417300E+03  0.16888797000E+03  0.00000000000E+00 0.  1.
</event>
<event>
12    1  0.8297444E-002  0.2137028E+03  0.7818608E-02  0.1139840E+00
         21   -1    0    0  503  502  0.00000000000E+00  0.00000000000E+00  0.34535248948E+03  0.34535248948E+03  0.00000000000E+00 0. -1.
         21   -1    0    0  501  503 -0.00000000000E+00 -0.00000000000E+00 -0.14531599469E+03  0.14531599469E+03  0.00000000000E+00 0. -1.
          6    2    1    2  501    0  0.10723257835E+03  0.46006489762E+02  0.15488984652E+02  0.20830939550E+03  0.17186469285E+03 0.  0.
         24    2    3    3    0    0  0.65074731074E+02  0.21449011093E+01  0.71558145094E+02  0.12544225003E+03  0.79849037179E+02 0.  0.
         -6    2    1    2    0  502 -0.10723257835E+03 -0.46006489762E+02  0.18454751013E+03  0.28235908867E+03  0.17903476896E+03 0.  0.
        -24    2    5    5    0    0 -0.12279465685E+03  0.72370368760E+01  0.89028132934E+02  0.17180099156E+03  0.80365849680E+02 0.  0.
          5    1    3    3  501    0  0.42157847279E+02  0.43861588653E+02 -0.56069160442E+02  0.82867145474E+02  0.47000000000E+01 0. -1.
        -11    1    4    4    0    0  0.77775875416E+01 -0.18612819008E+02 -0.10883913326E+02  0.22921332175E+02  0.00000000000E+00 0.  1.
         12    1    4    4    0    0  0.57297143532E+02  0.20757720117E+02  0.82442058421E+02  0.10252091786E+03  0.00000000000E+00 0. -1.
         -5    1    5    5    0  502  0.15562078494E+02 -0.53243526638E+02  0.95519377199E+02  0.11055809711E+03  0.47000000000E+01 0.  1.
         13    1    6    6    0    0 -0.20665445925E+02 -0.19676685695E+02  0.53028334061E+02  0.60218243320E+02  0.00000000000E+00 0. -1.
        -14    1    6    6    0    0 -0.10212921092E+03  0.26913722571E+02  0.35999798873E+02  0.11158274824E+03  0.00000000000E+00 0.  1.
</event>
<event>
12    1  0.8297444E-002  0.1745672E+03  0.7818608E-02  0.1173680E+00
         21   -1    0    0  501  502  0.00000000000E+00  0.00000000000E+00  0.31282752500E+03  0.31282752500E+03  0.00000000000E+00 0.  1.
         21   -1    0    0  502  503 -0.00000000000E+00 -0.00000000000E+00 -0.97903968698E+02  0.97903968698E+02  0.00000000000E+00 0.  1.
         -6    2    1    2    0  503  0.28115478789E+01  0.14607885480E+02  0.80458395542E+02  0.19038047733E+03  0.17190077841E+03 0.  0.
        -24    2    3    3    0    0 -0.51978516280E+02  0.43704283764E+02  0.25233440330E+02  0.10719131216E+03  0.79002660197E+02 0.  0.
          6    2    1    2  501    0 -0.28115478789E+01 -0.14607885480E+02  0.13446516076E+03  0.22035101637E+03  0.17393215872E+03 0.  0.
         24    2    5    5    0    0  0.31395706437E+01 -0.17646092667E+02  0.16977392053E+03  0.18410953419E+03  0.68933990149E+02 0.  0.
          5    1    5    5  501    0 -0.59511185225E+01  0.30382071864E+01 -0.35308759764E+02  0.36241482180E+02  0.47000000000E+01 0. -1.
        -11    1    6    6    0    0  0.13752676521E+02  0.20784066345E+02  0.10606845353E+03  0.10895701152E+03  0.00000000000E+00 0.  1.
         12    1    6    6    0    0 -0.10613105878E+02 -0.38430159011E+02  0.63705466995E+02  0.75152522666E+02  0.00000000000E+00 0. -1.
         -5    1    3    3    0  503  0.54790064158E+02 -0.29096398284E+02  0.55224955212E+02  0.83189165170E+02  0.47000000000E+01 0.  1.
         13    1    4    4    0    0  0.42425732827E+00  0.45128543974E+02  0.30552945802E+02  0.54499981401E+02  0.00000000000E+00 0. -1.
        -14    1    4    4    0    0 -0.52402773608E+02 -0.14242602103E+01 -0.53195054722E+01  0.52691330761E+02  0.00000000000E+00 0.  1.
</event>
<event>
12    1  0.8297444E-002  0.1832235E+03  0.7818608E-02  0.1164797E+00
         21   -1    0    0  503  502  0.00000000000E+00  0.00000000000E+00  0.82554635506E+02  0.82554635506E+02  0.00000000000E+00 0.  1.
         21   -1    0    0  501  503 -0.00000000000E+00 -0.00000000000E+00 -0.51700665521E+03  0.51700665521E+03  0.00000000000E+00 0.  1.
          6    2    1    2  501    0  0.67500090353E+02 -0.14944742572E+00 -0.35633593168E+03  0.40068211786E+03  0.17033666323E+03 0.  0.
         24    2    3    3    0    0  0.42186361900E+02 -0.89522207350E+01 -0.36322599232E+03  0.37261369073E+03  0.71049346469E+02 0.  0.
         -6    2    1    2    0  502 -0.67500090353E+02  0.14944742572E+00 -0.78116088024E+02  0.19887917285E+03  0.16998387468E+03 0.  0.
        -24    2    5    5    0    0 -0.49047636815E+01 -0.34387275275E+02 -0.90463864291E+02  0.12617760674E+03  0.80811733630E+02 0.  0.
          5    1    3    3  501    0  0.25313728453E+02  0.88027733093E+01  0.68900606456E+01  0.28068427135E+02  0.47000000000E+01 0. -1.
        -13    1    4    4    0    0  0.54360141857E+02 -0.16888824833E+02 -0.17940282592E+03  0.18821697951E+03  0.00000000000E+00 0.  1.
         14    1    4    4    0    0 -0.12173779957E+02  0.79366040984E+01 -0.18382316640E+03  0.18439671122E+03  0.00000000000E+00 0. -1.
         -5    1    5    5    0  502 -0.62595326672E+02  0.34536722701E+02  0.12347776267E+02  0.72701566109E+02  0.47000000000E+01 0.  1.
         11    1    6    6    0    0 -0.12928727978E+02 -0.55190915404E+02 -0.86668104606E+02  0.10355940086E+03  0.00000000000E+00 0. -1.
        -12    1    6    6    0    0  0.80239642961E+01  0.20803640129E+02 -0.37957596852E+01  0.22618205880E+02  0.00000000000E+00 0.  1.
</event>
<event>
12    1  0.8297444E-002  0.1980364E+03  0.7818608E-02  0.1153007E+00
         21   -1    0    0  501  502  0.00000000000E+00  0.00000000000E+00  0.38254164894E+03  0.38254164894E+03  0.00000000000E+00 0. -1.
         21   -1    0    0  502  503 -0.00000000000E+00 -0.00000000000E+00 -0.15385339721E+03  0.15385339721E+03  0.00000000000E+00 0. -1.
         -6    2    1    2    0  503 -0.25705989434E+02 -0.80721159265E+02 -0.44749088897E+02  0.20302931053E+03  0.17900200147E+03 0.  0.
        -24    2    3    3    0    0 -0.56813983814E+02  0.55442171729E+01  0.18070889620E+01  0.10007791334E+03  0.82181239145E+02 0.  0.
          6    2    1    2  501    0  0.25705989434E+02  0.80721159265E+02  0.27343734062E+03  0.33336573562E+03  0.17084504967E+03 0.  0.
         24    2    5    5    0    0  0.43061402405E+02 -0.20905571019E+01  0.19983179510E+03  0.22112110520E+03  0.84280140167E+02 0.  0.
          5    1    5    5  501    0 -0.17355412971E+02  0.82811716367E+02  0.73605545521E+02  0.11224463042E+03  0.47000000000E+01 0. -1.
        -13    1    6    6    0    0  0.62715868341E+02  0.18442177036E+02  0.15233853791E+03  0.16577220566E+03  0.00000000000E+00 0.  1.
         14    1    6    6    0    0 -0.19654465935E+02 -0.20532734138E+02  0.47493257191E+02  0.55348899547E+02  0.00000000000E+00 0. -1.
         -5    1    3    3    0  503  0.31107994379E+02 -0.86265376438E+02 -0.46556177859E+02  0.10295139719E+03  0.47000000000E+01 0.  1.
         13    1    4    4    0    0 -0.36967146193E+01 -0.33669006596E+02  0.33470867745E+01  0.34036314343E+02  0.00000000000E+00 0. -1.
        -14    1    4    4    0    0 -0.53117269194E+02  0.39213223769E+02 -0.15399978125E+01  0.66041598999E+02  0.00000000000E+00 0.  1.
</event>
<event>
12    1  0.8297444E-002  0.1951742E+03  0.7818608E-02  0.1154593E+00
         21   -1    0    0  503  502  0.00000000000E+00  0.00000000000E+00  0.35390160893E+03  0.35390160893E+03  0.00000000000E+00 0.  1.
         21   -1    0    0  501  503 -0.00000000000E+00 -0.00000000000E+00 -0.16597217672E+03  0.16597217672E+03  0.00000000000E+00 0.  1.
          6    2    1    2  501    0 -0.25451518493E+02 -0.81991649449E+02 -0.62993837172E+02  0.20198156762E+03  0.17163309635E+03 0.  0.
         24    2    3    3    0    0  0.38188410092E+01  0.47963600542E+01  0.10769585357E+02  0.84286856429E+02  0.83370867703E+02 0.  0.
         -6    2    1    2    0  502  0.25451518493E+02  0.81991649449E+02  0.25092326939E+03  0.31789221803E+03  0.17527853488E+03 0.  0.
        -24    2    5    5    0    0 -0.15684222254E+02  0.67474779732E+01  0.38509579941E+02  0.88773253356E+02  0.78142046796E+02 0.  0.
          5    1    3    3  501    0 -0.29270359502E+02 -0.86788009503E+02 -0.73763422529E+02  0.11769471119E+03  0.47000000000E+01 0. -1.
        -11    1    4    4    0    0 -0.17787013492E+02  0.99656576331E+01 -0.30926124297E+02  0.37042102331E+02  0.00000000000E+00 0.  1.
         12    1    4    4    0    0  0.21605854502E+02 -0.51692975790E+01  0.41695709654E+02  0.47244754098E+02  0.00000000000E+00 0. -1.
         -5    1    5    5    0  502  0.41135740747E+02  0.75244171476E+02  0.21241368945E+03  0.22911896467E+03  0.47000000000E+01 0.  1.
         13    1    6    6    0    0 -0.47036265304E+02  0.62218496308E+01  0.15619779146E+02  0.49950967630E+02  0.00000000000E+00 0. -1.
        -14    1    6    6    0    0  0.31352043050E+02  0.52562834243E+00  0.22889800795E+02  0.38822285727E+02  0.00000000000E+00 0.  1.
</event>
<event>
12    1  0.8297444E-002  0.1733461E+03  0.7818608E-02  0.1175129E+00
         21   -1    0    0  503  502  0.00000000000E+00  0.00000000000E+00  0.85171413174E+03  0.85171413174E+03  0.00000000000E+00 0.  1.
         21   -1    0    0  501  503 -0.00000000000E+00 -0.00000000000E+00 -0.38608644689E+02  0.38608644689E+02  0.00000000000E+00 0.  1.
          6    2    1    2  501    0  0.12098174735E+02  0.29448861881E+02  0.55108071207E+03  0.57770131457E+03  0.17039734839E+03 0.  0.
         24    2    3    3    0    0  0.39896808953E+02  0.56723420051E+02  0.21856579047E+03  0.24288057346E+03  0.80066637585E+02 0.  0.
         -6    2    1    2    0  502 -0.12098174735E+02 -0.29448861881E+02  0.26202477498E+03  0.31262146186E+03  0.16751595272E+03 0.  0.
        -24    2    5    5    0    0 -0.59328407025E+02 -0.41406610784E+02  0.23012725366E+03  0.25419865410E+03  0.80150081531E+02 0.  0.
          5    1    3    3  501    0 -0.27798634218E+02 -0.27274558171E+02  0.33251492160E+03  0.33482074111E+03  0.47000000000E+01 0. -1.
        -13    1    4    4    0    0 -0.93811020654E+01  0.37150152583E+02  0.15709953981E+03  0.16170468244E+03  0.00000000000E+00 0.  1.
         14    1    4    4    0    0  0.49277911019E+02  0.19573267469E+02  0.61466250662E+02  0.81175891028E+02  0.00000000000E+00 0. -1.
         -5    1    5    5    0  502  0.47230232290E+02  0.11957748903E+02  0.31897521317E+02  0.58422807765E+02  0.47000000000E+01 0.  1.
         13    1    6    6    0    0 -0.50000200531E+02 -0.58404564485E+02  0.12098441518E+03  0.14334692854E+03  0.00000000000E+00 0. -1.
        -14    1    6    6    0    0 -0.93282064942E+01  0.16997953702E+02  0.10914283848E+03  0.11085172556E+03  0.00000000000E+00 0.  1.
</event>
<event>
12    1  0.8297444E-002  0.1878377E+03  0.7818608E-02  0.1161091E+00
         21   -1    0    0  501  502  0.00000000000E+00  0.00000000000E+00  0.16457492292E+03  0.16457492292E+03  0.00000000000E+00 0. -1.
         21   -1    0    0  502  503 -0.00000000000E+00 -0.00000000000E+00 -0.21806900829E+03  0.21806900829E+03  0.00000000000E+00 0.  1.
         -6    2    1    2    0  503 -0.55345237405E+02  0.41155288450E+02 -0.60721137244E+02  0.19466724157E+03  0.17161417588E+03 0.  0.
        -24    2    3    3    0    0 -0.17328836407E+02 -0.40611340306E+02 -0.11745628903E+02  0.91945682294E+02  0.79790219710E+02 0.  0.
          6    2    1    2  501    0  0.55345237405E+02 -0.41155288450E+02  0.72270518744E+01  0.18797668963E+03  0.17471735030E+03 0.  0.
         24    2    5    5    0    0  0.18963009669E+02 -0.40426999301E+02  0.69505981938E+02  0.11569285997E+03  0.80992705321E+02 0.  0.
          5    1    5    5  501    0  0.36382227736E+02 -0.72828914923E+00 -0.62278930064E+02  0.72283829658E+02  0.47000000000E+01 0. -1.
        -13    1    6    6    0    0  0.39639513012E+02 -0.33895412486E+02  0.11006701580E+02  0.53304197387E+02  0.00000000000E+00 0.  1.
         14    1    6    6    0    0 -0.20676503343E+02 -0.65315868152E+01  0.58499280358E+02  0.62388662586E+02  0.00000000000E+00 0. -1.
         -5    1    3    3    0  503 -0.38016400997E+02  0.81766628756E+02 -0.48975508340E+02  0.10272155928E+03  0.47000000000E+01 0.  1.
         11    1    4    4    0    0  0.29686809058E+02 -0.55386106908E+01  0.57374959669E+01  0.30739253413E+02  0.00000000000E+00 0. -1.
        -12    1    4    4    0    0 -0.47015645465E+02 -0.35072729615E+02 -0.17483124870E+02  0.61206428881E+02  0.00000000000E+00 0.  1.
</event>
<event>
12    1  0.8297444E-002  0.2583250E+03  0.7818608E-02  0.1108192E+00
         21   -1    0    0  503  502  0.00000000000E+00  0.00000000000E+00  0.98838051468E+03  0.98838051468E+03  0.00000000000E+00 0.  1.
         21   -1    0    0  501  503 -0.00000000000E+00 -0.00000000000E+00 -0.84951713776E+02  0.84951713776E+02  0.00000000000E+00 0. -1.
          6    2    1    2  501    0  0.28615396790E+02  0.19028119028E+03  0.20830538900E+03  0.33184773250E+03  0.17235431579E+03 0.  0.
         24    2    3    3    0    0  0.52325061120E+02  0.12035202402E+03  0.58073228751E+02  0.16438421872E+03  0.80169506415E+02 0.  0.
         -6    2    1    2    0  502 -0.28615396790E+02 -0.19028119028E+03  0.69512341191E+03  0.74148449595E+03  0.17197943962E+03 0.  0.
        -24    2    5    5    0    0 -0.78151152549E+02 -0.11952828745E+03  0.53348765358E+03  0.55815972205E+03  0.80861515267E+02 0.  0.
          5    1    3    3  501    0 -0.23709664330E+02  0.69929166259E+02  0.15023216024E+03  0.16746351378E+03  0.47000000000E+01 0. -1.
        -13    1    4    4    0    0  0.45934194824E+02  0.38182933011E+02  0.56096457871E+02  0.81943268260E+02  0.00000000000E+00 0.  1.
         14    1    4    4    0    0  0.63908662968E+01  0.82169091009E+02  0.19767708805E+01  0.82440950458E+02  0.00000000000E+00 0. -1.
         -5    1    5    5    0  502  0.49535755759E+02 -0.70752902831E+02  0.16163575833E+03  0.18332477391E+03  0.47000000000E+01 0.  1.
         13    1    6    6    0    0 -0.19410012519E+02 -0.22076458383E+02  0.30103348936E+02  0.42075292250E+02  0.00000000000E+00 0. -1.
        -14    1    6    6    0    0 -0.58741140030E+02 -0.97451829065E+02  0.50338430464E+03  0.51608442980E+03  0.00000000000E+00 0.  1.
</event>
<event>
12    1  0.8297444E-002  0.1853326E+03  0.7818608E-02  0.1164569E+00
         21   -1    0    0  503  502  0.00000000000E+00  0.00000000000E+00  0.19606556911E+04  0.19606556911E+04  0.00000000000E+00 0. -1.
         21   -1    0    0  501  503 -0.00000000000E+00 -0.00000000000E+00 -0.45154069500E+02  0.45154069500E+02  0.00000000000E+00 0. -1.
          6    2    1    2  501    0 -0.67349378731E+02 -0.33956215570E+01  0.17063277955E+03  0.25192006727E+03  0.17262880923E+03 0.  0.
         24    2    3    3    0    0 -0.23982140744E+01 -0.48090271638E+01  0.26477216062E+02  0.93731673291E+02  0.89753581736E+02 0.  0.
         -6    2    1    2    0  502  0.67349378731E+02  0.33956215570E+01  0.17448688420E+04  0.17538896933E+04  0.16436030952E+03 0.  0.
        -24    2    5    5    0    0  0.87455875395E+02 -0.43733483809E+02  0.12470977582E+04  0.12534663069E+04  0.79773530979E+02 0.  0.
          5    1    3    3  501    0 -0.64951164657E+02  0.14134056068E+01  0.14415556349E+03  0.15818839398E+03  0.47000000000E+01 0. -1.
        -11    1    4    4    0    0  0.23697514747E+02 -0.29694145748E+02 -0.13104503358E+02  0.40187591433E+02  0.00000000000E+00 0.  1.
         12    1    4    4    0    0 -0.26095728822E+02  0.24885118585E+02  0.39581719420E+02  0.53544081858E+02  0.00000000000E+00 0. -1.
         -5    1    5    5    0  502 -0.20106496664E+02  0.47129105366E+02  0.49777108378E+03  0.50042338637E+03  0.47000000000E+01 0.  1.
         13    1    6    6    0    0  0.56741451477E+02 -0.65178590131E+02  0.97120018649E+03  0.97503725219E+03  0.00000000000E+00 0. -1.
        -14    1    6    6    0    0  0.30714423918E+02  0.21445106321E+02  0.27589757176E+03  0.27842905474E+03  0.00000000000E+00 0.  1.
</event>
<event>
12    1  0.8297444E-002  0.1768512E+03  0.7818608E-02  0.1172991E+00
         21   -1    0    0  501  502  0.00000000000E+00  0.00000000000E+00  0.14979376575E+03  0.14979376575E+03  0.00000000000E+00 0. -1.
         21   -1    0    0  502  503 -0.00000000000E+00 -0.00000000000E+00 -0.23360326771E+03  0.23360326771E+03  0.00000000000E+00 0. -1.
         -6    2    1    2    0  503  0.15674446229E+02 -0.34704980903E+02 -0.11467539208E+03  0.20387247915E+03  0.16420541478E+03 0.  0.
        -24    2    3    3    0    0  0.60338814255E+02 -0.50324599126E+02 -0.46569137131E+02  0.12080967034E+03  0.79075622865E+02 0.  0.
          6    2    1    2  501    0 -0.15674446229E+02  0.34704980903E+02  0.30865890126E+02  0.17952455431E+03  0.17270274596E+03 0.  0.
         24    2    5    5    0    0  0.53241414336E+02  0.41901179266E+02  0.94780027006E+00  0.10390469442E+03  0.78771379150E+02 0.  0.
          5    1    5    5  501    0 -0.68915860565E+02 -0.71961983630E+01  0.29918089856E+02  0.75619859884E+02  0.47000000000E+01 0. -1.
        -13    1    6    6    0    0  0.46824122578E+02  0.61037797257E+02  0.16187101922E+02  0.78613824597E+02  0.00000000000E+00 0.  1.
         14    1    6    6    0    0  0.64172917581E+01 -0.19136617992E+02 -0.15239301652E+02  0.25290869825E+02  0.00000000000E+00 0. -1.
         -5    1    3    3    0  503 -0.44664368025E+02  0.15619618224E+02 -0.68106254950E+02  0.83062808813E+02  0.47000000000E+01 0.  1.
         13    1    4    4    0    0  0.15282924136E+02 -0.61045519158E+02 -0.14798462390E+02  0.64646095540E+02  0.00000000000E+00 0. -1.
        -14    1    4    4    0    0  0.45055890119E+02  0.10720920032E+02 -0.31770674741E+02  0.56163574799E+02  0.00000000000E+00 0.  1.
</event>
<event>
12    1  0.8297444E-002  0.1988443E+03  0.7818608E-02  0.1151049E+00
         21   -1    0    0  501  502  0.00000000000E+00  0.00000000000E+00  0.13637875016E+03  0.13637875016E+03  0.00000000000E+00 0. -1.
         21   -1    0    0  502  503 -0.00000000000E+00 -0.00000000000E+00 -0.42880680290E+03  0.42880680290E+03  0.00000000000E+00 0.  1.
         -6    2    1    2    0  503  0.68757341071E+02  0.69774092714E+02 -0.30872480807E+03  0.36721935581E+03  0.17304060852E+03 0.  0.
        -24    2    3    3    0    0  0.98827877789E+02  0.26731654379E+02 -0.14243250102E+03  0.19277134046E+03  0.79951495178E+02 0.  0.
          6    2    1    2  501    0 -0.68757341071E+02 -0.69774092714E+02  0.16296755323E+02  0.19796619725E+03  0.17125721899E+03 0.  0.
         24    2    5    5    0    0 -0.91979007488E+02 -0.25471538107E+02  0.54884222953E+02  0.13461759984E+03  0.77464076744E+02 0.  0.
          5    1    5    5  501    0  0.23221666417E+02 -0.44302554607E+02 -0.38587467629E+02  0.63348597411E+02  0.47000000000E+01 0. -1.
        -11    1    6    6    0    0 -0.17412984093E+02  0.11238068474E+01  0.52598902814E+02  0.55417682504E+02  0.00000000000E+00 0.  1.
         12    1    6    6    0    0 -0.74566023395E+02 -0.26595344954E+02  0.22853201391E+01  0.79199917338E+02  0.00000000000E+00 0. -1.
         -5    1    3    3    0  503 -0.30070536717E+02  0.43042438335E+02 -0.16629230705E+03  0.17444801535E+03  0.47000000000E+01 0.  1.
         11    1    4    4    0    0  0.30532035317E+02 -0.20586917291E+02 -0.82437719523E+02  0.90288448565E+02  0.00000000000E+00 0. -1.
        -12    1    4    4    0    0  0.68295842471E+02  0.47318571670E+02 -0.59994781495E+02  0.10248289189E+03  0.00000000000E+00 0.  1.
</event>
<event>
12    1  0.8297444E-002  0.2143460E+03  0.7818608E-02  0.1138176E+00
         21   -1    0    0  503  502  0.00000000000E+00  0.00000000000E+00  0.90294828743E+02  0.90294828743E+02  0.00000000000E+00 0.  1.
         21   -1    0    0  501  503 -0.00000000000E+00 -0.00000000000E+00 -0.12919108794E+04  0.12919108794E+04  0.00000000000E+00 0.  1.
          6    2    1    2  501    0 -0.48355244141E+02  0.11794842836E+03 -0.11389113943E+04  0.11589061133E+04  0.17231991710E+03 0.  0.
         24    2    3    3    0    0 -0.80299597687E+02  0.13640759935E+03 -0.93419090301E+03  0.95083460564E+03  0.79490536962E+02 0.  0.
         -6    2    1    2    0  502  0.48355244141E+02 -0.11794842836E+03 -0.62704656295E+02  0.22329959485E+03  0.17228108936E+03 0.  0.
        -24    2    5    5    0    0  0.87539348185E+02 -0.73275577097E+02 -0.81341548458E+02  0.16084576071E+03  0.78882593466E+02 0.  0.
          5    1    3    3  501    0  0.31944353547E+02 -0.18459170988E+02 -0.20472049132E+03  0.20807150762E+03  0.47000000000E+01 0. -1.
        -13    1    4    4    0    0 -0.92331294892E+02  0.92489336852E+02 -0.73252041388E+03  0.74408702595E+03  0.00000000000E+00 0.  1.
         14    1    4    4    0    0  0.12031697204E+02  0.43918262498E+02 -0.20167048913E+03  0.20674757968E+03  0.00000000000E+00 0. -1.
         -5    1    5    5    0  502 -0.39184104044E+02 -0.44672851265E+02  0.18636892163E+02  0.62453834145E+02  0.47000000000E+01 0.  1.
         11    1    6    6    0    0  0.32403389677E+02  0.96336364774E+01 -0.41687021441E+02  0.53671168899E+02  0.00000000000E+00 0. -1.
        -12    1    6    6    0    0  0.55135958507E+02 -0.82909213575E+02 -0.39654527018E+02  0.10717459181E+03  0.00000000000E+00 0.  1.
</event>
<event>
12    1  0.8297444E-002  0.1961392E+03  0.7818608E-02  0.1153109E+00
         21   -1    0    0  503  502  0.00000000000E+00  0.00000000000E+00  0.27936259118E+03  0.27936259118E+03  0.00000000000E+00 0.  1.
         21   -1    0    0  501  503 -0.00000000000E+00 -0.00000000000E+00 -0.45098477794E+03  0.45098477794E+03  0.00000000000E+00 0.  1.
          6    2    1    2  501    0  0.94214620915E+02  0.17416378451E+02 -0.39030171441E+03  0.43681349245E+03  0.17114576793E+03 0.  0.
         24    2    3    3    0    0  0.41079249948E+02 -0.60451526812E+02 -0.21413461419E+03  0.23695425319E+03  0.70368979242E+02 0.  0.
         -6    2    1    2    0  502 -0.94214620915E+02 -0.17416378451E+02  0.21867952765E+03  0.29353387668E+03  0.17076790071E+03 0.  0.
        -24    2    5    5    0    0 -0.12593173996E+03 -0.27886024968E+02  0.13644370434E+03  0.20464962738E+03  0.81413463350E+02 0.  0.
          5    1    3    3  501    0  0.53135370967E+02  0.77867905263E+02 -0.17616710022E+03  0.19985923926E+03  0.47000000000E+01 0. -1.
        -13    1    4    4    0    0  0.26712257467E+02  0.10671340888E+02 -0.66390983256E+02  0.72354577416E+02  0.00000000000E+00 0.  1.
         14    1    4    4    0    0  0.14366992481E+02 -0.71122867700E+02 -0.14774363093E+03  0.16459967577E+03  0.00000000000E+00 0. -1.
         -5    1    5    5    0  502  0.31717119043E+02  0.10469646517E+02  0.82235823310E+02  0.88884249302E+02  0.47000000000E+01 0.  1.
         13    1    6    6    0    0 -0.12790495113E+03 -0.32126981981E+02  0.14431344597E+03  0.19549473186E+03  0.00000000000E+00 0. -1.
        -14    1    6    6    0    0  0.19732111758E+01  0.42409570131E+01 -0.78697416289E+01  0.91548955230E+01  0.00000000000E+00 0.  1.
</event>
<event>
12    1  0.8297444E-002  0.2163929E+03  0.7818608E-02  0.1136631E+00
         21   -1    0    0  501  502  0.00000000000E+00  0.00000000000E+00  0.16848348554E+03  0.16848348554E+03  0.00000000000E+00 0. -1.
         21   -1    0    0  502  503 -0.00000000000E+00 -0.00000000000E+00 -0.29468253747E+03  0.29468253747E+03  0.00000000000E+00 0. -1.
         -6    2    1    2    0  503  0.23274505512E+02  0.12918615973E+03 -0.11867532973E+03  0.24679895273E+03  0.17203233042E+03 0.  0.
        -24    2    3    3    0    0  0.67416330393E+02  0.37367709403E+02 -0.83840207145E+02  0.13902741525E+03  0.79737911611E+02 0.  0.
          6    2    1    2  501    0 -0.23274505512E+02 -0.12918615973E+03 -0.75237221968E+01  0.21636707027E+03  0.17183520079E+03 0.  0.
         24    2    5    5    0    0 -0.43675990833E+02 -0.38896552178E+02 -0.54663430886E+02  0.11238305241E+03  0.78875381747E+02 0.  0.
          5    1    5    5  501    0  0.20401485321E+02 -0.90289607556E+02  0.47139708689E+02  0.10398401786E+03  0.47000000000E+01 0. -1.
        -13    1    6    6    0    0 -0.49964609257E+02 -0.31748854321E+00 -0.65505002138E+01  0.50393174441E+02  0.00000000000E+00 0.  1.
         14    1    6    6    0    0  0.62886184235E+01 -0.38579063635E+02 -0.48112930672E+02  0.61989877968E+02  0.00000000000E+00 0. -1.
         -5    1    3    3    0  503 -0.44141824881E+02  0.91818450331E+02 -0.34835122587E+02  0.10777153748E+03  0.47000000000E+01 0.  1.
         13    1    4    4    0    0  0.60310485844E+02  0.39255600260E+02 -0.19894226406E+02  0.74660143978E+02  0.00000000000E+00 0. -1.
        -14    1    4    4    0    0  0.71058445487E+01 -0.18878908570E+01 -0.63945980739E+02  0.64367271275E+02  0.00000000000E+00 0.  1.
</event>
<event>
12    1  0.8297444E-002  0.1951283E+03  0.7818608E-02  0.1153939E+00
         21   -1    0    0  501  502  0.00000000000E+00  0.00000000000E+00  0.22594376847E+03  0.22594376847E+03  0.00000000000E+00 0.  1.
         21   -1    0    0  502  503 -0.00000000000E+00 -0.00000000000E+00 -0.34279748807E+03  0.34279748807E+03  0.00000000000E+00 0.  1.
         -6    2    1    2    0  503 -0.71289649064E+02 -0.54381323807E+02 -0.26123736623E+03  0.32600331648E+03  0.17318677317E+03 0.  0.
        -24    2    3    3    0    0  0.57964801060E+01 -0.32901146000E+02 -0.21943138879E+03  0.23559591027E+03  0.78988695142E+02 0.  0.
          6    2    1    2  501    0  0.71289649064E+02  0.54381323807E+02  0.14438364663E+03  0.24273794006E+03  0.17330761001E+03 0.  0.
         24    2    5    5    0    0  0.10664731761E+02  0.82847151298E+02  0.55874458606E+02  0.13164495965E+03  0.85035600156E+02 0.  0.
          5    1    5    5  501    0  0.60624917303E+02 -0.28465827491E+02  0.88509188021E+02  0.11109298041E+03  0.47000000000E+01 0. -1.
        -11    1    6    6    0    0 -0.21751525946E+01  0.41638717638E+02  0.73914794252E+02  0.84864073109E+02  0.00000000000E+00 0.  1.
         12    1    6    6    0    0  0.12839884355E+02  0.41208433660E+02 -0.18040335646E+02  0.46780886537E+02  0.00000000000E+00 0. -1.
         -5    1    3    3    0  503 -0.77086129170E+02 -0.21480177807E+02 -0.41805977444E+02  0.90407406218E+02  0.47000000000E+01 0.  1.
         11    1    4    4    0    0  0.27676608182E+02  0.96832272012E+01 -0.38250187830E+02  0.48195813081E+02  0.00000000000E+00 0. -1.
        -12    1    4    4    0    0 -0.21880128076E+02 -0.42584373201E+02 -0.18118120096E+03  0.18740009719E+03  0.00000000000E+00 0.  1.
</event>
<event>
12    1  0.8297444E-002  0.2826828E+03  0.7818608E-02  0.1094253E+00
         21   -1    0    0  503  502  0.00000000000E+00  0.00000000000E+00  0.56599085670E+03  0.56599085670E+03  0.00000000000E+00 0. -1.
         21   -1    0    0  501  503 -0.00000000000E+00 -0.00000000000E+00 -0.15183669891E+03  0.15183669891E+03  0.00000000000E+00 0. -1.
          6    2    1    2  501    0  0.20978455749E+03 -0.78270445480E+02  0.11172381243E+03  0.30396012937E+03  0.17255064991E+03 0.  0.
         24    2    3    3    0    0  0.20374252158E+02 -0.17854806540E+02  0.29179373224E+02  0.88641789142E+02  0.79196128017E+02 0.  0.
         -6    2    1    2    0  502 -0.20978455749E+03  0.78270445480E+02  0.30243034536E+03  0.41386742624E+03  0.17229715467E+03 0.  0.
        -24    2    5    5    0    0 -0.15836122848E+03  0.11709852807E+03  0.26351398580E+03  0.33844493751E+03  0.79467043811E+02 0.  0.
          5    1    3    3  501    0  0.18941030533E+03 -0.60415638940E+02  0.82544439210E+02  0.21531834023E+03  0.47000000000E+01 0. -1.
        -11    1    4    4    0    0  0.17242667091E+01  0.28160059947E+02  0.26833334521E+02  0.38935715140E+02  0.00000000000E+00 0.  1.
         12    1    4    4    0    0  0.18649985449E+02 -0.46014866487E+02  0.23460387028E+01  0.49706074002E+02  0.00000000000E+00 0. -1.
         -5    1    5    5    0  502 -0.51423329010E+02 -0.38828082591E+02  0.38916359566E+02  0.75422488729E+02  0.47000000000E+01 0.  1.
         13    1    6    6    0    0 -0.16253695559E+03  0.92269914515E+02  0.22609885123E+03  0.29334738721E+03  0.00000000000E+00 0. -1.
        -14    1    6    6    0    0  0.41757271082E+01  0.24828613557E+02  0.37415134570E+02  0.45097550299E+02  0.00000000000E+00 0.  1.
</event>
<event>
12    1  0.8297444E-002  0.2305834E+03  0.7818608E-02  0.1126507E+00
         21   -1    0    0  501  502  0.00000000000E+00  0.00000000000E+00  0.10196405484E+03  0.10196405484E+03  0.00000000000E+00 0.  1.
         21   -1    0    0  502  503 -0.00000000000E+00 -0.00000000000E+00 -0.54022960655E+03  0.54022960655E+03  0.00000000000E+00 0.  1.
         -6    2    1    2    0  503  0.14212595039E+03  0.53858820431E+02 -0.15312531802E+03  0.27548716537E+03  0.17130457365E+03 0.  0.
        -24    2    3    3    0    0  0.10728870346E+03  0.10204316999E+03 -0.10124546446E+03  0.19643670983E+03  0.80081598769E+02 0.  0.
          6    2    1    2  501    0 -0.14212595039E+03 -0.53858820431E+02 -0.28514023369E+03  0.36670649601E+03  0.17340168119E+03 0.  0.
         24    2    5    5    0    0 -0.24486493248E+02  0.22287251134E+02 -0.87071110658E+02  0.12403236556E+03  0.81892243110E+02 0.  0.
          5    1    5    5  501    0 -0.11763945714E+03 -0.76146071566E+02 -0.19806912303E+03  0.24267413045E+03  0.47000000000E+01 0. -1.
        -13    1    6    6    0    0 -0.53333978758E+02  0.13817465042E+02 -0.39632077503E+02  0.67868528771E+02  0.00000000000E+00 0.  1.
         14    1    6    6    0    0  0.28847485510E+02  0.84697860925E+01 -0.47439033155E+02  0.56163836794E+02  0.00000000000E+00 0. -1.
         -5    1    3    3    0  503  0.34837246935E+02 -0.48184349563E+02 -0.51879853564E+02  0.79050455549E+02  0.47000000000E+01 0.  1.
         13    1    4    4    0    0  0.14140668434E+02 -0.63740805082E+01  0.71188248696E+01  0.17066489786E+02  0.00000000000E+00 0. -1.
        -14    1    4    4    0    0  0.93148035023E+02  0.10841725050E+03 -0.10836428933E+03  0.17937022004E+03  0.00000000000E+00 0.  1.
</event>
<event>
12    1  0.8297444E-002  0.2706141E+03  0.7818608E-02  0.1101079E+00
         21   -1    0    0  503  502  0.00000000000E+00  0.00000000000E+00  0.12335201076E+03  0.12335201076E+03  0.00000000000E+00 0. -1.
         21   -1    0    0  501  503 -0.00000000000E+00 -0.00000000000E+00 -0.69253942690E+03  0.69253942690E+03  0.00000000000E+00 0.  1.
          6    2    1    2  501    0 -0.20555937025E+03  0.31066008805E+02 -0.12914833535E+03  0.29985213696E+03  0.17324046847E+03 0.  0.
         24    2    3    3    0    0 -0.10006409644E+03  0.57695523332E+02 -0.13749753370E+02  0.14117855200E+03  0.80004568738E+02 0.  0.
         -6    2    1    2    0  502  0.20555937025E+03 -0.31066008805E+02 -0.44003908079E+03  0.51603930070E+03  0.17158792393E+03 0.  0.
        -24    2    5    5    0    0  0.13458053671E+03 -0.30670027384E+02 -0.16738617819E+03  0.23425951627E+03  0.88356193182E+02 0.  0.
          5    1    3    3  501    0 -0.10549527381E+03 -0.26629514527E+02 -0.11539858198E+03  0.15867358496E+03  0.47000000000E+01 0. -1.
        -11    1    4    4    0    0 -0.23008111053E+02  0.12827889436E+02 -0.40297357612E+02  0.48143586822E+02  0.00000000000E+00 0.  1.
         12    1    4    4    0    0 -0.77055985383E+02  0.44867633896E+02  0.26547604241E+02  0.93034965178E+02  0.00000000000E+00 0. -1.
         -5    1    5    5    0  502  0.70978833536E+02 -0.39598142107E+00 -0.27265290261E+03  0.28177978443E+03  0.47000000000E+01 0.  1.
         11    1    6    6    0    0 -0.70390050959E+01 -0.20701636161E+02 -0.24401470913E+02  0.32764876243E+02  0.00000000000E+00 0. -1.
        -12    1    6    6    0    0  0.14161954181E+03 -0.99683912231E+01 -0.14298470727E+03  0.20149464003E+03  0.00000000000E+00 0.  1.
</event>
<event>
12    1  0.8297444E-002  0.2515850E+03  0.7818608E-02  0.1112364E+00
         21   -1    0    0  501  502  0.00000000000E+00  0.00000000000E+00  0.75846570647E+02  0.75846570647E+02  0.00000000000E+00 0.  1.
         21   -1    0    0  502  503 -0.00000000000E+00 -0.00000000000E+00 -0.12377068503E+04  0.12377068503E+04  0.00000000000E+00 0. -1.
         -6    2    1    2    0  503  0.37700773187E+02 -0.17881251153E+03 -0.20579516853E+03  0.32503331643E+03  0.17291542100E+03 0.  0.
        -24    2    3    3    0    0  0.82847138872E+02 -0.90547659820E+02 -0.13752593291E+03  0.20456897766E+03  0.88727432516E+02 0.  0.
          6    2    1    2  501    0 -0.37700773187E+02  0.17881251153E+03 -0.95606511113E+03  0.98852010452E+03  0.17238398344E+03 0.  0.
         24    2    5    5    0    0 -0.60275248662E+02  0.19661192356E+03 -0.87648741682E+03  0.90377858316E+03  0.79348481069E+02 0.  0.
          5    1    5    5  501    0  0.22574475475E+02 -0.17799412025E+02 -0.79577694314E+02  0.84741521368E+02  0.47000000000E+01 0. -1.
        -13    1    6    6    0    0 -0.33814697427E+02  0.26645715378E+02 -0.10777221766E+03  0.11605291384E+03  0.00000000000E+00 0.  1.
         14    1    6    6    0    0 -0.26460551235E+02  0.16996620818E+03 -0.76871519915E+03  0.78772566932E+03  0.00000000000E+00 0. -1.
         -5    1    3    3    0  503 -0.45146365684E+02 -0.88264851712E+02 -0.68269235619E+02  0.12046433877E+03  0.47000000000E+01 0.  1.
         13    1    4    4    0    0  0.53999773432E+02 -0.40251710950E+02 -0.12958980448E+03  0.14604688696E+03  0.00000000000E+00 0. -1.
        -14    1    4    4    0    0  0.28847365440E+02 -0.50295948870E+02 -0.79361284257E+01  0.58522090700E+02  0.00000000000E+00 0.  1.
</event>
<event>
12    1  0.8297444E-002  0.1909054E+03  0.7818608E-02  0.1158238E+00
         21   -1    0    0  501  502  0.00000000000E+00  0.00000000000E+00  0.60249145527E+03  0.60249145527E+03  0.00000000000E+00 0.  1.
         21   -1    0    0  502  503 -0.00000000000E+00 -0.00000000000E+00 -0.99811716940E+02  0.99811716940E+02  0.00000000000E+00 0.  1.
         -6    2    1    2    0  503 -0.46932418684E+02 -0.64520714784E+02  0.29673518798E+02  0.19319782918E+03  0.17343387478E+03 0.  0.
        -24    2    3    3    0    0 -0.71865632296E+02  0.37261119373E+01 -0.75832377373E+01  0.11140876875E+03  0.84710419923E+02 0.  0.
          6    2    1    2  501    0  0.46932418684E+02  0.64520714784E+02  0.47300621953E+03  0.50910534303E+03  0.17055143514E+03 0.  0.
         24    2    5    5    0    0 -0.14096800263E+02 -0.21776986924E+02  0.22829508013E+03  0.24250172222E+03  0.77559556014E+02 0.  0.
          5    1    5    5  501    0  0.61029218947E+02  0.86297701708E+02  0.24471113940E+03  0.26660362081E+03  0.47000000000E+01 0. -1.
        -13    1    6    6    0    0 -0.18857007652E+02  0.10573763627E+02  0.14067888391E+02  0.25793346014E+02  0.00000000000E+00 0.  1.
         14    1    6    6    0    0  0.47602073892E+01 -0.32350750551E+02  0.21422719174E+03  0.21670837621E+03  0.00000000000E+00 0. -1.
         -5    1    3    3    0  503  0.24933213612E+02 -0.68246826721E+02  0.37256756535E+02  0.81789060430E+02  0.47000000000E+01 0.  1.
         11    1    4    4    0    0 -0.62601716688E+01  0.34165922149E+02 -0.16650448978E+02  0.38519312517E+02  0.00000000000E+00 0. -1.
        -12    1    4    4    0    0 -0.65605460627E+02 -0.30439810211E+02  0.90672112410E+01  0.72889456230E+02  0.00000000000E+00 0.  1.
</event>
<event>
12    1  0.8297444E-002  0.2063686E+03  0.7818608E-02  0.1146137E+00
         21   -1    0    0  503  502  0.00000000000E+00  0.00000000000E+00  0.17269143029E+03  0.17269143029E+03  0.00000000000E+00 0. -1.
         21   -1    0    0  501  503 -0.00000000000E+00 -0.00000000000E+00 -0.42233806630E+03  0.42233806630E+03  0.00000000000E+00 0. -1.
          6    2    1    2  501    0 -0.89325515800E+02 -0.44029206096E+02 -0.32322543509E+03  0.38348751816E+03  0.18074948390E+03 0.  0.
         24    2    3    3    0    0 -0.13198191882E+02  0.20006036139E+02 -0.58925872399E+02  0.10104773602E+03  0.78510844889E+02 0.  0.
         -6    2    1    2    0  502  0.89325515800E+02  0.44029206096E+02  0.73578799085E+02  0.21154197844E+03  0.17151836696E+03 0.  0.
        -24    2    5    5    0    0  0.11629282988E+03 -0.28408113338E+01  0.71340803450E+02  0.15721764515E+03  0.78075509727E+02 0.  0.
          5    1    3    3  501    0 -0.76127323918E+02 -0.64035242234E+02 -0.26429956269E+03  0.28243978214E+03  0.47000000000E+01 0. -1.
        -11    1    4    4    0    0  0.19561862377E+02 -0.12813302430E+02 -0.48019393827E+02  0.53410760735E+02  0.00000000000E+00 0.  1.
         12    1    4    4    0    0 -0.32760054258E+02  0.32819338569E+02 -0.10906478572E+02  0.47636975281E+02  0.00000000000E+00 0. -1.
         -5    1    5    5    0  502 -0.26967314082E+02  0.46870017429E+02  0.22379956348E+01  0.54324333287E+02  0.47000000000E+01 0.  1.
         11    1    6    6    0    0  0.36575842765E+02 -0.73762069473E+01  0.67684921537E+02  0.77288092915E+02  0.00000000000E+00 0. -1.
        -12    1    6    6    0    0  0.79716987116E+02  0.45353956134E+01  0.36558819136E+01  0.79929552237E+02  0.00000000000E+00 0.  1.
</event>
<event>
12    1  0.8297444E-002  0.1757011E+03  0.7818608E-02  0.1172690E+00
         21   -1    0    0  503  502  0.00000000000E+00  0.00000000000E+00  0.13482077894E+03  0.13482077894E+03  0.00000000000E+00 0.  1.
         21   -1    0    0  501  503 -0.00000000000E+00 -0.00000000000E+00 -0.33087645640E+03  0.33087645640E+03  0.00000000000E+00 0. -1.
          6    2    1    2  501    0  0.26151516981E+02 -0.27635424255E+01 -0.22888430714E+03  0.28695550473E+03  0.17106693611E+03 0.  0.
         24    2    3    3    0    0  0.20492944453E+02 -0.68694152562E+02 -0.14504170179E+03  0.18004181399E+03  0.78988050721E+02 0.  0.
         -6    2    1    2    0  502 -0.26151516981E+02  0.27635424255E+01  0.32828629687E+02  0.17874173061E+03  0.17372204329E+03 0.  0.
        -24    2    5    5    0    0 -0.52016640418E+02 -0.10217241085E+02 -0.33164408289E+02  0.10652901419E+03  0.86246333204E+02 0.  0.
          5    1    3    3  501    0  0.56585725285E+01  0.65930610136E+02 -0.83842605355E+02  0.10691369074E+03  0.47000000000E+01 0. -1.
        -13    1    4    4    0    0  0.17421004120E+02 -0.14298805079E+01  0.26930229037E+01  0.17685822434E+02  0.00000000000E+00 0.  1.
         14    1    4    4    0    0  0.30719403326E+01 -0.67264272054E+02 -0.14773472469E+03  0.16235599155E+03  0.00000000000E+00 0. -1.
         -5    1    5    5    0  502  0.25865123437E+02  0.12980783511E+02  0.65993037976E+02  0.72212716417E+02  0.47000000000E+01 0.  1.
         13    1    6    6    0    0 -0.31506148645E+02 -0.36262059106E+02 -0.50009393414E+02  0.69343447871E+02  0.00000000000E+00 0. -1.
        -14    1    6    6    0    0 -0.20510491773E+02  0.26044818021E+02  0.16844985125E+02  0.37185566318E+02  0.00000000000E+00 0.  1.
</event>
<event>
12    1  0.8297444E-002  0.1920474E+03  0.7818608E-02  0.1156768E+00
         21   -1    0    0  503  502  0.00000000000E+00  0.00000000000E+00  0.18784910790E+03  0.18784910790E+03  0.00000000000E+00 0. -1.
         21   -1    0    0  501  503 -0.00000000000E+00 -0.00000000000E+00 -0.21416682190E+03  0.21416682190E+03  0.00000000000E+00 0.  1.
          6    2    1    2  501    0 -0.72610395824E+02 -0.37375658439E+02 -0.72172096975E+02  0.20457015884E+03  0.17312113932E+03 0.  0.
         24    2    3    3    0    0  0.29701116328E+02 -0.10319077337E+02 -0.28027846314E+02  0.89807320924E+02  0.79316801841E+02 0.  0.
         -6    2    1    2    0  502  0.72610395824E+02  0.37375658439E+02  0.45854382975E+02  0.19744577097E+03  0.17381886724E+03 0.  0.
        -24    2    5    5    0    0  0.86414084512E+02  0.15165969667E+02 -0.26516724106E+02  0.12035180728E+03  0.78000129616E+02 0.  0.
          5    1    3    3  501    0 -0.10231151215E+03 -0.27056581101E+02 -0.44144250661E+02  0.11476283791E+03  0.47000000000E+01 0. -1.
        -11    1    4    4    0    0  0.21968819141E+02  0.18117813387E+01 -0.54992107938E+02  0.59245620104E+02  0.00000000000E+00 0.  1.
         12    1    4    4    0    0  0.77322971874E+01 -0.12130858676E+02  0.26964261624E+02  0.30561700819E+02  0.00000000000E+00 0. -1.
         -5    1    5    5    0  502 -0.13803688688E+02  0.22209688771E+02  0.72371107081E+02  0.77093963687E+02  0.47000000000E+01 0.  1.
         13    1    6    6    0    0  0.38951157835E+02  0.45285965545E+02 -0.42326337458E+01  0.59882606494E+02  0.00000000000E+00 0. -1.
        -14    1    6    6    0    0  0.47462926677E+02 -0.30119995878E+02 -0.22284090361E+02  0.60469200785E+02  0.00000000000E+00 0.  1.
</event>
<event>
12    1  0.8297444E-002  0.1780823E+03  0.7818608E-02  0.1169694E+00
         21   -1    0    0  503  502  0.00000000000E+00  0.00000000000E+00  0.12295293267E+04  0.12295293267E+04  0.00000000000E+00 0. -1.
         21   -1    0    0  501  503 -0.00000000000E+00 -0.00000000000E+00 -0.45342415373E+02  0.45342415373E+02  0.00000000000E+00 0. -1.
          6    2    1    2  501    0 -0.50333976501E+01 -0.48242660216E+02  0.17348531594E+03  0.24861706755E+03  0.17134935680E+03 0.  0.
         24    2    3    3    0    0  0.14819467720E+02 -0.74155069877E+02  0.18383282356E+03  0.21405190949E+03  0.79404797899E+02 0.  0.
         -6    2    1    2    0  502  0.50333976501E+01  0.48242660216E+02  0.10107015954E+04  0.10262546746E+04  0.17125493483E+03 0.  0.
        -24    2    5    5    0    0 -0.49445817554E+02  0.62653286169E+02  0.80995905082E+03  0.81769938155E+03  0.78919525045E+02 0.  0.
          5    1    3    3  501    0 -0.19852865370E+02  0.25912409662E+02 -0.10347507614E+02  0.34565158059E+02  0.47000000000E+01 0. -1.
        -13    1    4    4    0    0 -0.24854047698E+02 -0.16902271202E+02  0.20209572813E+02  0.36219294472E+02  0.00000000000E+00 0.  1.
         14    1    4    4    0    0  0.39673515418E+02 -0.57252798676E+02  0.16362325074E+03  0.17783261502E+03  0.00000000000E+00 0. -1.
         -5    1    5    5    0  502  0.54479215204E+02 -0.14410625953E+02  0.20074254460E+03  0.20855529301E+03  0.47000000000E+01 0.  1.
         13    1    6    6    0    0 -0.43222679880E+02  0.38661516195E+02  0.75710117744E+03  0.75931884329E+03  0.00000000000E+00 0. -1.
        -14    1    6    6    0    0 -0.62231376741E+01  0.23991769974E+02  0.52857873375E+02  0.58380538253E+02  0.00000000000E+00 0.  1.
</event>
<event>
12    1  0.8297444E-002  0.3429626E+03  0.7818608E-02  0.1065681E+00
         21   -1    0    0  503  502  0.00000000000E+00  0.00000000000E+00  0.91338120530E+03  0.91338120530E+03  0.00000000000E+00 0.  1.
         21   -1    0    0  501  503 -0.00000000000E+00 -0.00000000000E+00 -0.21173867100E+03  0.21173867100E+03  0.00000000000E+00 0. -1.
          6    2    1    2  501    0  0.20476044153E+03  0.21289396249E+03 -0.27714857540E+01  0.34165166196E+03  0.17166100113E+03 0.  0.
         24    2    3    3    0    0  0.17563044652E+03  0.23508335493E+03 -0.24821414018E+00  0.30464649144E+03  0.81848552990E+02 0.  0.
         -6    2    1    2    0  502 -0.20476044153E+03 -0.21289396249E+03  0.70441402006E+03  0.78346821434E+03  0.17427751875E+03 0.  0.
        -24    2    5    5    0    0 -0.12889533388E+03 -0.21825071260E+03  0.52471225598E+03  0.58827850317E+03  0.80630422766E+02 0.  0.
          5    1    3    3  501    0  0.29129995008E+02 -0.22189392435E+02 -0.25232716139E+01  0.37005170523E+02  0.47000000000E+01 0. -1.
        -11    1    4    4    0    0  0.62768851107E+02  0.13667424020E+03  0.25981689367E+02  0.15262642231E+03  0.00000000000E+00 0.  1.
         12    1    4    4    0    0  0.11286159542E+03  0.98409114726E+02 -0.26229903507E+02  0.15202006913E+03  0.00000000000E+00 0. -1.
         -5    1    5    5    0  502 -0.75865107654E+02  0.53567501087E+01  0.17970176408E+03  0.19518971116E+03  0.47000000000E+01 0.  1.
         11    1    6    6    0    0 -0.34671324060E+02 -0.12785333358E+03  0.22059390862E+03  0.25731352110E+03  0.00000000000E+00 0. -1.
        -12    1    6    6    0    0 -0.94224009818E+02 -0.90397379020E+02  0.30411834735E+03  0.33096498207E+03  0.00000000000E+00 0.  1.
</event>
<event>
12    1  0.8297444E-002  0.1742498E+03  0.7818608E-02  0.1173712E+00
         21   -1    0    0  501  502  0.00000000000E+00  0.00000000000E+00  0.14996907715E+03  0.14996907715E+03  0.00000000000E+00 0.  1.
         21   -1    0    0  502  503 -0.00000000000E+00 -0.00000000000E+00 -0.27503280900E+03  0.27503280900E+03  0.00000000000E+00 0.  1.
         -6    2    1    2    0  503 -0.31519622260E+01  0.18787867624E+02 -0.17257828336E+03  0.24524732055E+03  0.17320526987E+03 0.  0.
        -24    2    3    3    0    0 -0.33563355181E+02  0.52729194409E+02 -0.17192586374E+03  0.19942830554E+03  0.79412087701E+02 0.  0.
          6    2    1    2  501    0  0.31519622260E+01 -0.18787867624E+02  0.47514551513E+02  0.17975456560E+03  0.17231120803E+03 0.  0.
         24    2    5    5    0    0  0.63345330664E+02 -0.39963117834E+02  0.20955891717E+02  0.11047913536E+03  0.78465331504E+02 0.  0.
          5    1    5    5  501    0 -0.60193368438E+02  0.21175250210E+02  0.26558659796E+02  0.69275430244E+02  0.47000000000E+01 0. -1.
        -11    1    6    6    0    0  0.68878563743E+02 -0.56009863336E+02  0.26457884335E+02  0.92635743521E+02  0.00000000000E+00 0.  1.
         12    1    6    6    0    0 -0.55332330788E+01  0.16046745502E+02 -0.55019926183E+01  0.17843391838E+02  0.00000000000E+00 0. -1.
         -5    1    3    3    0  503  0.30411392955E+02 -0.33941326786E+02 -0.65241962551E+00  0.45819015013E+02  0.47000000000E+01 0.  1.
         11    1    4    4    0    0  0.14918147447E+02 -0.11916991542E+02 -0.22139510791E+02  0.29235658855E+02  0.00000000000E+00 0. -1.
        -12    1    4    4    0    0 -0.48481502627E+02  0.64646185951E+02 -0.14978635295E+03  0.17019264668E+03  0.00000000000E+00 0.  1.
</event>
<event>
12    1  0.8297444E-002  0.1736896E+03  0.7818608E-02  0.1174118E+00
         21   -1    0    0  501  502  0.00000000000E+00  0.00000000000E+00  0.25683417590E+03  0.25683417590E+03  0.00000000000E+00 0. -1.
         21   -1    0    0  502  503 -0.00000000000E+00 -0.00000000000E+00 -0.24437144578E+03  0.24437144578E+03  0.00000000000E+00 0. -1.
         -6    2    1    2    0  503 -0.12722873964E+02  0.12968062905E+02 -0.17448841507E+03  0.24602174427E+03  0.17248318609E+03 0.  0.
        -24    2    3    3    0    0 -0.97069267478E+00  0.60414399184E+02 -0.16429876405E+03  0.19587009844E+03  0.87864496373E+02 0.  0.
          6    2    1    2  501    0  0.12722873964E+02 -0.12968062905E+02  0.18695114518E+03  0.25518387741E+03  0.17273690523E+03 0.  0.
         24    2    5    5    0    0 -0.19794199619E+02 -0.65651368111E+01  0.22450556434E+02  0.87312226335E+02  0.81758706102E+02 0.  0.
          5    1    5    5  501    0  0.32517073582E+02 -0.64029260939E+01  0.16450058875E+03  0.16787165108E+03  0.47000000000E+01 0. -1.
        -13    1    6    6    0    0 -0.28925140914E+02 -0.31790967606E+02 -0.11064926932E+02  0.44382000927E+02  0.00000000000E+00 0.  1.
         14    1    6    6    0    0  0.91309412959E+01  0.25225830795E+02  0.33515483367E+02  0.42930225408E+02  0.00000000000E+00 0. -1.
         -5    1    3    3    0  503 -0.11752181289E+02 -0.47446336279E+02 -0.10189651022E+02  0.50151645828E+02  0.47000000000E+01 0.  1.
         11    1    4    4    0    0 -0.98865500404E+01  0.69136685951E+02 -0.63780863472E+02  0.94581307674E+02  0.00000000000E+00 0. -1.
        -12    1    4    4    0    0  0.89158573656E+01 -0.87222867676E+01 -0.10051790058E+03  0.10128879077E+03  0.00000000000E+00 0.  1.
</event>
<event>
12    1  0.8297444E-002  0.2444693E+03  0.7818608E-02  0.1117090E+00
         21   -1    0    0  503  502  0.00000000000E+00  0.00000000000E+00  0.13265300855E+04  0.13265300855E+04  0.00000000000E+00 0. -1.
         21   -1    0    0  501  503 -0.00000000000E+00 -0.00000000000E+00 -0.17937752118E+03  0.17937752118E+03  0.00000000000E+00 0. -1.
          6    2    1    2  501    0 -0.97086170940E+02  0.14275496742E+03 -0.79077161231E+02  0.25554582740E+03  0.17101393851E+03 0.  0.
         24    2    3    3    0    0 -0.61123911006E+02  0.53336171181E+02  0.21919385735E+02  0.11586262241E+03  0.79767212230E+02 0.  0.
         -6    2    1    2    0  502  0.97086170940E+02 -0.14275496742E+03  0.12262297256E+04  0.12503617793E+04  0.17309111451E+03 0.  0.
        -24    2    5    5    0    0  0.62557570203E+02 -0.13444498392E+02  0.69070486710E+03  0.69834512581E+03  0.80737210698E+02 0.  0.
          5    1    3    3  501    0 -0.35962259934E+02  0.89418796236E+02 -0.10099654697E+03  0.13968320500E+03  0.47000000000E+01 0. -1.
        -13    1    4    4    0    0 -0.15034064010E+02  0.59060708935E+02  0.31252401315E+02  0.68490167240E+02  0.00000000000E+00 0.  1.
         14    1    4    4    0    0 -0.46089846995E+02 -0.57245377547E+01 -0.93330155806E+01  0.47372455165E+02  0.00000000000E+00 0. -1.
         -5    1    5    5    0  502  0.34528600737E+02 -0.12931046902E+03  0.53552485846E+03  0.55201665346E+03  0.47000000000E+01 0.  1.
         11    1    6    6    0    0  0.33994918317E+02 -0.29500843191E+02  0.14899786774E+03  0.15564806074E+03  0.00000000000E+00 0. -1.
        -12    1    6    6    0    0  0.28562651886E+02  0.16056344799E+02  0.54170699935E+03  0.54269706507E+03  0.00000000000E+00 0.  1.
</event>
<event>
12    1  0.8297444E-002  0.1883988E+03  0.7818608E-02  0.1159958E+00
         21   -1    0    0  501  502  0.00000000000E+00  0.00000000000E+00  0.36059522206E+03  0.36059522206E+03  0.00000000000E+00 0. -1.
         21   -1    0    0  502  503 -0.00000000000E+00 -0.00000000000E+00 -0.10873928691E+03  0.10873928691E+03  0.00000000000E+00 0. -1.
         -6    2    1    2    0  503 -0.66698213959E+02 -0.38051167418E+02  0.53264851140E+02  0.19559644581E+03  0.17182631393E+03 0.  0.
        -24    2    3    3    0    0 -0.73267321105E+02  0.32772105297E+02  0.52023947449E+02  0.12430325561E+03  0.79389527141E+02 0.  0.
          6    2    1    2  501    0  0.66698213959E+02  0.38051167418E+02  0.19859108401E+03  0.27373806316E+03  0.17203943003E+03 0.  0.
         24    2    5    5    0    0  0.13188747395E+02  0.38027499504E+02  0.20505954489E+03  0.21963450913E+03  0.67600790473E+02 0.  0.
          5    1    5    5  501    0  0.53509466563E+02  0.23667913380E-01 -0.64684608821E+01  0.54103554026E+02  0.47000000000E+01 0. -1.
        -13    1    6    6    0    0  0.26390798442E+02  0.41948383481E+02  0.82045858556E+02  0.95852303182E+02  0.00000000000E+00 0.  1.
         14    1    6    6    0    0 -0.13202051047E+02 -0.39208839771E+01  0.12301368634E+03  0.12378220595E+03  0.00000000000E+00 0. -1.
         -5    1    3    3    0  503  0.65691071459E+01 -0.70823272714E+02  0.12409036917E+01  0.71293190198E+02  0.47000000000E+01 0.  1.
         11    1    4    4    0    0 -0.17986151943E+02  0.47218457531E+02  0.58983877580E+01  0.50871164440E+02  0.00000000000E+00 0. -1.
        -12    1    4    4    0    0 -0.55281169162E+02 -0.14446352235E+02  0.46125559691E+02  0.73432091170E+02  0.00000000000E+00 0.  1.
</event>
<event>
12    1  0.8297444E-002  0.2031955E+03  0.7818608E-02  0.1147234E+00
         21   -1    0    0  503  502  0.00000000000E+00  0.00000000000E+00  0.60462157343E+03  0.60462157343E+03  0.00000000000E+00 0.  1.
         21   -1    0    0  501  503 -0.00000000000E+00 -0.00000000000E+00 -0.89623684670E+02  0.89623684670E+02  0.00000000000E+00 0. -1.
          6    2    1    2  501    0 -0.62510260639E+01 -0.10844865364E+03  0.86706548070E+02  0.22019685437E+03  0.17078771441E+03 0.  0.
         24    2    3    3    0    0  0.59525718514E+02 -0.29309607950E+02  0.23662551583E+02  0.99423495664E+02  0.70162317947E+02 0.  0.
         -6    2    1    2    0  502  0.62510260639E+01  0.10844865364E+03  0.42829134069E+03  0.47404840374E+03  0.17172137540E+03 0.  0.
        -24    2    5    5    0    0  0.61129915621E+02  0.10699491358E+03  0.28848123532E+03  0.32377278548E+03  0.80141221396E+02 0.  0.
          5    1    3    3  501    0 -0.65776744578E+02 -0.79139045687E+02  0.63043996487E+02  0.12077335870E+03  0.47000000000E+01 0. -1.
        -11    1    4    4    0    0  0.29979413414E+02 -0.49879486269E+02  0.38317521520E+01  0.58321614378E+02  0.00000000000E+00 0.  1.
         12    1    4    4    0    0  0.29546305101E+02  0.20569878319E+02  0.19830799431E+02  0.41101881286E+02  0.00000000000E+00 0. -1.
         -5    1    5    5    0  502 -0.54878889557E+02  0.14537400564E+01  0.13981010537E+03  0.15027561826E+03  0.47000000000E+01 0.  1.
         11    1    6    6    0    0  0.62638307076E+02  0.11920275581E+03  0.26625036546E+03  0.29836573465E+03  0.00000000000E+00 0. -1.
        -12    1    6    6    0    0 -0.15083914558E+01 -0.12207842234E+02  0.22230869859E+02  0.25407050822E+02  0.00000000000E+00 0.  1.
</event>
<event>
12    1  0.8297444E-002  0.2662015E+03  0.7818608E-02  0.1103638E+00
         21   -1    0    0  503  502  0.00000000000E+00  0.00000000000E+00  0.17942368546E+04  0.17942368546E+04  0.00000000000E+00 0. -1.
         21   -1    0    0  501  503 -0.00000000000E+00 -0.00000000000E+00 -0.68162822656E+02  0.68162822656E+02  0.00000000000E+00 0. -1.
          6    2    1    2  501    0 -0.69842486104E+02  0.19009746781E+03  0.14676405909E+04  0.14913860568E+04  0.17102177160E+03 0.  0.
         24    2    3    3    0    0 -0.52078380245E+02  0.41336928405E+02  0.38971053778E+03  0.40308437489E+03  0.78624491601E+02 0.  0.
         -6    2    1    2    0  502  0.69842486104E+02 -0.19009746781E+03  0.25843344101E+03  0.37101362038E+03  0.17276644043E+03 0.  0.
        -24    2    5    5    0    0  0.10545667236E+03 -0.15613573827E+03  0.24622202974E+03  0.32009232915E+03  0.79588521403E+02 0.  0.
          5    1    3    3  501    0 -0.17764105859E+02  0.14876053941E+03  0.10779300531E+04  0.10883016819E+04  0.47000000000E+01 0. -1.
        -13    1    4    4    0    0 -0.70761441191E+01  0.29358389884E+02  0.39149037755E+02  0.49443240481E+02  0.00000000000E+00 0.  1.
         14    1    4    4    0    0 -0.45002236126E+02  0.11978538521E+02  0.35056150003E+03  0.35364113441E+03  0.00000000000E+00 0. -1.
         -5    1    5    5    0  502 -0.35614186252E+02 -0.33961729540E+02  0.12211411277E+02  0.50921291236E+02  0.47000000000E+01 0.  1.
         11    1    6    6    0    0  0.25167427764E+02 -0.68499129318E+02  0.43104129404E+02  0.84755507840E+02  0.00000000000E+00 0. -1.
        -12    1    6    6    0    0  0.80289244592E+02 -0.87636608957E+02  0.20311790033E+03  0.23533682131E+03  0.00000000000E+00 0.  1.
</event>
<event>
12    1  0.8297444E-002  0.1921777E+03  0.7818608E-02  0.1156561E+00
         21   -1    0    0  501  502  0.00000000000E+00  0.00000000000E+00  0.12658731813E+03  0.12658731813E+03  0.00000000000E+00 0. -1.
         21   -1    0    0  502  503 -0.00000000000E+00 -0.00000000000E+00 -0.29180317647E+03  0.29180317647E+03  0.00000000000E+00 0. -1.
         -6    2    1    2    0  503  0.17854586131E+02 -0.82478883760E+02 -0.75047932504E+02  0.20631155347E+03  0.17265778989E+03 0.  0.
        -24    2    3    3    0    0 -0.32526993837E+02 -0.82396344966E+02 -0.43129386955E+01  0.11934121507E+03  0.79853373015E+02 0.  0.
          6    2    1    2  501    0 -0.17854586131E+02  0.82478883760E+02 -0.90167925835E+02  0.21207894113E+03  0.17241133927E+03 0.  0.
         24    2    5    5    0    0  0.10345545469E+02  0.27024263745E+02 -0.11615766977E+03  0.14449181889E+03  0.80919344643E+02 0.  0.
          5    1    5    5  501    0 -0.28200131600E+02  0.55454620015E+02  0.25989743936E+02  0.67587122243E+02  0.47000000000E+01 0. -1.
        -13    1    6    6    0    0  0.11389755348E+02 -0.23422631462E+02 -0.74946949955E+02  0.79343503194E+02  0.00000000000E+00 0.  1.
         14    1    6    6    0    0 -0.10442098795E+01  0.50446895207E+02 -0.41210719816E+02  0.65148315696E+02  0.00000000000E+00 0. -1.
         -5    1    3    3    0  503  0.50381579968E+02 -0.82538793700E-01 -0.70734993809E+02  0.86970338402E+02  0.47000000000E+01 0.  1.
         11    1    4    4    0    0 -0.13698361818E+02 -0.87016722935E+02 -0.24419310140E+02  0.91410381766E+02  0.00000000000E+00 0. -1.
        -12    1    4    4    0    0 -0.18828632018E+02  0.46203779689E+01  0.20106371445E+02  0.27930833302E+02  0.00000000000E+00 0.  1.
</event>
<event>
12    1  0.8297444E-002  0.2158335E+03  0.7818608E-02  0.1137150E+00
         21   -1    0    0  503  502  0.00000000000E+00  0.00000000000E+00  0.16336716380E+03  0.16336716380E+03  0.00000000000E+00 0.  1.
         21   -1    0    0  501  503 -0.00000000000E+00 -0.00000000000E+00 -0.28668252744E+03  0.28668252744E+03  0.00000000000E+00 0.  1.
          6    2    1    2  501    0 -0.12974525180E+03  0.13484434081E+02 -0.41255006274E+02  0.21974088859E+03  0.17195470988E+03 0.  0.
         24    2    3    3    0    0 -0.35268542372E+02  0.36763969507E+02 -0.70521455331E+02  0.11802363129E+03  0.79754889159E+02 0.  0.
         -6    2    1    2    0  502  0.12974525180E+03 -0.13484434081E+02 -0.82060357374E+02  0.23030880265E+03  0.17115075810E+03 0.  0.
        -24    2    5    5    0    0  0.10209181470E+03 -0.15249882946E+02 -0.12396154908E+03  0.17985457329E+03  0.79535553840E+02 0.  0.
          5    1    3    3  501    0 -0.94476709427E+02 -0.23279535426E+02  0.29266449058E+02  0.10171725731E+03  0.47000000000E+01 0. -1.
        -13    1    4    4    0    0 -0.41464805932E+02  0.28493542856E+02 -0.85868310218E+02  0.99521750462E+02  0.00000000000E+00 0.  1.
         14    1    4    4    0    0  0.61962635600E+01  0.82704266502E+01  0.15346854886E+02  0.18501880823E+02  0.00000000000E+00 0. -1.
         -5    1    5    5    0  502  0.27653437096E+02  0.17654488649E+01  0.41901191708E+02  0.50454229352E+02  0.47000000000E+01 0.  1.
         11    1    6    6    0    0 -0.74083713613E+01 -0.19059404222E+02 -0.15263336185E+02  0.25516941177E+02  0.00000000000E+00 0. -1.
        -12    1    6    6    0    0  0.10950018607E+03  0.38095212761E+01 -0.10869821290E+03  0.15433763212E+03  0.00000000000E+00 0.  1.
</event>
<event>
12    1  0.8297444E-002  0.2020252E+03  0.7818608E-02  0.1148114E+00
         21   -1    0    0  503  502  0.00000000000E+00  0.00000000000E+00  0.17389559310E+04  0.17389559310E+04  0.00000000000E+00 0. -1.
         21   -1    0    0  501  503 -0.00000000000E+00 -0.00000000000E+00 -0.25153016721E+03  0.25153016721E+03  0.00000000000E+00 0. -1.
          6    2    1    2  501    0 -0.69456091932E+02 -0.79027783956E+02 -0.20398392897E+03  0.28709514075E+03  0.17246633648E+03 0.  0.
         24    2    3    3    0    0  0.34238504211E+02 -0.20479592467E+02 -0.45312229980E+02  0.88653063413E+02  0.64919015616E+02 0.  0.
         -6    2    1    2    0  502  0.69456091932E+02  0.79027783956E+02  0.16914096927E+04  0.17033909574E+04  0.17205948343E+03 0.  0.
        -24    2    5    5    0    0  0.38580471460E+02  0.12744834950E+02  0.69991330771E+03  0.70919082426E+03  0.10687424066E+03 0.  0.
          5    1    3    3  501    0 -0.10369459614E+03 -0.58548191489E+02 -0.15867169899E+03  0.19844207734E+03  0.47000000000E+01 0. -1.
        -11    1    4    4    0    0  0.18183089338E+02 -0.44256086459E+01  0.15144044586E+02  0.24073903634E+02  0.00000000000E+00 0.  1.
         12    1    4    4    0    0  0.16055414873E+02 -0.16053983821E+02 -0.60456274566E+02  0.64579159779E+02  0.00000000000E+00 0. -1.
         -5    1    5    5    0  502  0.30875620472E+02  0.66282949006E+02  0.99149638502E+03  0.99420013316E+03  0.47000000000E+01 0.  1.
         13    1    6    6    0    0 -0.13886272358E+02 -0.37505320508E+01  0.53798547084E+03  0.53817772332E+03  0.00000000000E+00 0. -1.
        -14    1    6    6    0    0  0.52466743818E+02  0.16495367001E+02  0.16192783687E+03  0.17101310094E+03  0.00000000000E+00 0.  1.
</event>
<event>
12    1  0.8297444E-002  0.3505268E+03  0.7818608E-02  0.1062638E+00
         21   -1    0    0  501  502  0.00000000000E+00  0.00000000000E+00  0.14315937813E+03  0.14315937813E+03  0.00000000000E+00 0. -1.
         21   -1    0    0  502  503 -0.00000000000E+00 -0.00000000000E+00 -0.16403155496E+04  0.16403155496E+04  0.00000000000E+00 0.  1.
         -6    2    1    2    0  503  0.21598103399E+03 -0.21486402692E+03 -0.13652434757E+04  0.14089485856E+04  0.16861794593E+03 0.  0.
        -24    2    3    3    0    0  0.47411935218E+02 -0.49931872153E+02 -0.55832130396E+03  0.56825622923E+03  0.80320483976E+02 0.  0.
          6    2    1    2  501    0 -0.21598103399E+03  0.21486402692E+03 -0.13191269573E+03  0.37452634214E+03  0.17336281191E+03 0.  0.
         24    2    5    5    0    0 -0.98127571515E+02  0.12654641884E+03 -0.14513402298E+03  0.22658604334E+03  0.68075942855E+02 0.  0.
          5    1    5    5  501    0 -0.11785346247E+03  0.88317608083E+02  0.13221327255E+02  0.14794029880E+03  0.47000000000E+01 0. -1.
        -11    1    6    6    0    0 -0.76638269783E+02  0.95595872549E+02 -0.66537933006E+02  0.13942486067E+03  0.00000000000E+00 0.  1.
         12    1    6    6    0    0 -0.21489301732E+02  0.30950546291E+02 -0.78596089976E+02  0.87161182669E+02  0.00000000000E+00 0. -1.
         -5    1    3    3    0  503  0.16856909877E+03 -0.16493215477E+03 -0.80692217176E+03  0.84069235635E+03  0.47000000000E+01 0.  1.
         13    1    4    4    0    0  0.70205315950E+02 -0.38554493426E+02 -0.43881248722E+03  0.44606236592E+03  0.00000000000E+00 0. -1.
        -14    1    4    4    0    0 -0.22793380733E+02 -0.11377378727E+02 -0.11950881674E+03  0.12219386331E+03  0.00000000000E+00 0.  1.
</event>
<event>
12    1  0.8297444E-002  0.2381818E+03  0.7818608E-02  0.1121374E+00
         21   -1    0    0  501  502  0.00000000000E+00  0.00000000000E+00  0.19934573388E+03  0.19934573388E+03  0.00000000000E+00 0. -1.
         21   -1    0    0  502  503 -0.00000000000E+00 -0.00000000000E+00 -0.28714681441E+03  0.28714681441E+03  0.00000000000E+00 0. -1.
         -6    2    1    2    0  503 -0.16352874813E+03  0.23835288232E+01 -0.11582229546E+02  0.23846320216E+03  0.17315662872E+03 0.  0.
        -24    2    3    3    0    0 -0.13764265506E+03  0.63543463049E+02 -0.10889200232E+02  0.17188093982E+03  0.80257152978E+02 0.  0.
          6    2    1    2  501    0  0.16352874813E+03 -0.23835288232E+01 -0.76218850984E+02  0.24802934612E+03  0.17018199264E+03 0.  0.
         24    2    5    5    0    0  0.17030474576E+03 -0.34828324775E+02 -0.90103920600E+02  0.21178760104E+03  0.80737555158E+02 0.  0.
          5    1    5    5  501    0 -0.67759976316E+01  0.32444795951E+02  0.13885069615E+02  0.36241745080E+02  0.47000000000E+01 0. -1.
        -13    1    6    6    0    0  0.33112600893E+02  0.11146297746E+02 -0.51152789154E+02  0.61945880651E+02  0.00000000000E+00 0.  1.
         14    1    6    6    0    0  0.13719214487E+03 -0.45974622520E+02 -0.38951131445E+02  0.14984172039E+03  0.00000000000E+00 0. -1.
         -5    1    3    3    0  503 -0.25886093072E+02 -0.61159934226E+02 -0.69302931356E+00  0.66582262342E+02  0.47000000000E+01 0.  1.
         11    1    4    4    0    0 -0.13314495596E+03  0.34679691736E+02 -0.24335308285E+02  0.13972282400E+03  0.00000000000E+00 0. -1.
        -12    1    4    4    0    0 -0.44976990988E+01  0.28863771313E+02  0.13446108053E+02  0.32158115824E+02  0.00000000000E+00 0.  1.
</event>
<event>
12    1  0.8297444E-002  0.1783265E+03  0.7818608E-02  0.1169611E+00
         21   -1    0    0  503  502  0.00000000000E+00  0.00000000000E+00  0.20575730064E+03  0.20575730064E+03  0.00000000000E+00 0.  1.
         21   -1    0    0  501  503 -0.00000000000E+00 -0.00000000000E+00 -0.16166792986E+03  0.16166792986E+03  0.00000000000E+00 0.  1.
          6    2    1    2  501    0  0.34804976387E+02  0.24813836854E+02 -0.18126086585E+02  0.17924538491E+03  0.17312781439E+03 0.  0.
         24    2    3    3    0    0 -0.22451906504E+02  0.66969964228E+02 -0.85555821854E+01  0.10734841510E+03  0.80382958534E+02 0.  0.
         -6    2    1    2    0  502 -0.34804976387E+02 -0.24813836854E+02  0.62215457359E+02  0.18817984560E+03  0.17237684959E+03 0.  0.
        -24    2    5    5    0    0 -0.38347125391E+02  0.14559867973E+02  0.99503812167E+02  0.13363310550E+03  0.79210519928E+02 0.  0.
          5    1    3    3  501    0  0.57256882891E+02 -0.42156127373E+02 -0.95705043999E+01  0.71896969810E+02  0.47000000000E+01 0. -1.
        -11    1    4    4    0    0  0.26539729559E+02  0.59700845170E+01 -0.10309239823E+02  0.29090884826E+02  0.00000000000E+00 0.  1.
         12    1    4    4    0    0 -0.48991636063E+02  0.60999879711E+02  0.17536576375E+01  0.78257530270E+02  0.00000000000E+00 0. -1.
         -5    1    5    5    0  502  0.35421490045E+01 -0.39373704828E+02 -0.37288354808E+02  0.54546740102E+02  0.47000000000E+01 0.  1.
         13    1    6    6    0    0 -0.43143731043E+01 -0.31259365195E+02  0.28385642940E+02  0.42444156875E+02  0.00000000000E+00 0. -1.
        -14    1    6    6    0    0 -0.34032752287E+02  0.45819233168E+02  0.71118169227E+02  0.91188948620E+02  0.00000000000E+00 0.  1.
</event>
<event>
12    1  0.8297444E-002  0.2128221E+03  0.7818608E-02  0.1139902E+00
         21   -1    0    0  503  502  0.00000000000E+00  0.00000000000E+00  0.92456718049E+03  0.92456718049E+03  0.00000000000E+00 0. -1.
         21   -1    0    0  501  503 -0.00000000000E+00 -0.00000000000E+00 -0.15246084181E+03  0.15246084181E+03  0.00000000000E+00 0. -1.
          6    2    1    2  501    0 -0.12200226130E+03 -0.29172476615E+02 -0.59780128422E+02  0.21834975994E+03  0.16842615224E+03 0.  0.
         24    2    3    3    0    0 -0.63293495194E+02 -0.25427568750E+02  0.32239621961E+02  0.10903156377E+03  0.78713790964E+02 0.  0.
         -6    2    1    2    0  502  0.12200226130E+03  0.29172476615E+02  0.83188646710E+03  0.85867826235E+03  0.17192346824E+03 0.  0.
        -24    2    5    5    0    0  0.45596674030E+02  0.61652322210E+02  0.63990963621E+03  0.64946557695E+03  0.80256635885E+02 0.  0.
          5    1    3    3  501    0 -0.58708766108E+02 -0.37449078650E+01 -0.92019750383E+02  0.10931819617E+03  0.47000000000E+01 0. -1.
        -11    1    4    4    0    0  0.12198049605E+02 -0.23822552135E+02  0.17833028976E+02  0.32160897482E+02  0.00000000000E+00 0.  1.
         12    1    4    4    0    0 -0.75491544798E+02 -0.16050166145E+01  0.14406592985E+02  0.76870666290E+02  0.00000000000E+00 0. -1.
         -5    1    5    5    0  502  0.76405587271E+02 -0.32479845595E+02  0.19197683089E+03  0.20921268541E+03  0.47000000000E+01 0.  1.
         13    1    6    6    0    0  0.61391397767E+02  0.52059544290E+02  0.60127454623E+03  0.60663842593E+03  0.00000000000E+00 0. -1.
        -14    1    6    6    0    0 -0.15794723737E+02  0.95927779198E+01  0.38635089986E+02  0.42827151018E+02  0.00000000000E+00 0.  1.
</event>
<event>
12    1  0.8297444E-002  0.2059996E+03  0.7818608E-02  0.1146885E+00
         21   -1    0    0  501  502  0.00000000000E+00  0.00000000000E+00  0.17394894912E+03  0.17394894912E+03  0.00000000000E+00 0. -1.
         21   -1    0    0  502  503 -0.00000000000E+00 -0.00000000000E+00 -0.23498479926E+03  0.23498479926E+03  0.00000000000E+00 0. -1.
         -6    2    1    2    0  503 -0.20731819470E+02  0.11085290628E+03 -0.53876333387E+02  0.21292833879E+03  0.17238805931E+03 0.  0.
        -24    2    3    3    0    0  0.69478266801E+01  0.90903807309E+02 -0.95483120142E+02  0.15891589518E+03  0.88461635919E+02 0.  0.
          6    2    1    2  501    0  0.20731819470E+02 -0.11085290628E+03 -0.71595167523E+01  0.19600540958E+03  0.16015207378E+03 0.  0.
         24    2    5    5    0    0 -0.45041220059E+02 -0.78299264642E+02 -0.16827707656E+02  0.12183401194E+03  0.80005427146E+02 0.  0.
          5    1    5    5  501    0  0.65773039530E+02 -0.32553641636E+02  0.96681909036E+01  0.74171397641E+02  0.47000000000E+01 0. -1.
        -13    1    6    6    0    0 -0.77639407536E+01  0.12857295582E+02 -0.17870995133E+02  0.23344406027E+02  0.00000000000E+00 0.  1.
         14    1    6    6    0    0 -0.37277279306E+02 -0.91156560224E+02  0.10432874773E+01  0.98489605914E+02  0.00000000000E+00 0. -1.
         -5    1    3    3    0  503 -0.27679646150E+02  0.19949098969E+02  0.41606786755E+02  0.54012443610E+02  0.47000000000E+01 0.  1.
         11    1    4    4    0    0 -0.88083132737E+01  0.80919516922E+02 -0.23741887203E+02  0.84789337829E+02  0.00000000000E+00 0. -1.
        -12    1    4    4    0    0  0.15756139954E+02  0.99842903869E+01 -0.71741232939E+02  0.74126557349E+02  0.00000000000E+00 0.  1.
</event>
<event>
12    1  0.8297444E-002  0.2916641E+03  0.7818608E-02  0.1089484E+00
         21   -1    0    0  503  502  0.00000000000E+00  0.00000000000E+00  0.25905580211E+03  0.25905580211E+03  0.00000000000E+00 0. -1.
         21   -1    0    0  501  503 -0.00000000000E+00 -0.00000000000E+00 -0.33694585285E+03  0.33694585285E+03  0.00000000000E+00 0.  1.
          6    2    1    2  501    0 -0.50183423223E+01 -0.23552206434E+03  0.85830404576E+01  0.29179035450E+03  0.17196544958E+03 0.  0.
         24    2    3    3    0    0  0.40239507284E+02 -0.22806147556E+03 -0.22350057511E+00  0.24484806545E+03  0.79493840172E+02 0.  0.
         -6    2    1    2    0  502  0.50183423223E+01  0.23552206434E+03 -0.86473091199E+02  0.30421130046E+03  0.17196247636E+03 0.  0.
        -24    2    5    5    0    0 -0.17244841585E+02  0.23072821964E+03 -0.34803880623E+02  0.24755066486E+03  0.80852493253E+02 0.  0.
          5    1    3    3  501    0 -0.45257849606E+02 -0.74605887798E+01  0.88065410327E+01  0.46942289046E+02  0.47000000000E+01 0. -1.
        -13    1    4    4    0    0 -0.98922492273E+01 -0.10172528263E+03  0.28124503595E+02  0.10600413871E+03  0.00000000000E+00 0.  1.
         14    1    4    4    0    0  0.50131756511E+02 -0.12633619293E+03 -0.28348004170E+02  0.13884392675E+03  0.00000000000E+00 0. -1.
         -5    1    5    5    0  502  0.22263183907E+02  0.47938446939E+01 -0.51669210576E+02  0.56660635596E+02  0.47000000000E+01 0.  1.
         11    1    6    6    0    0 -0.27396613748E+02  0.98114700107E+02 -0.50371161750E+02  0.11364120185E+03  0.00000000000E+00 0. -1.
        -12    1    6    6    0    0  0.10151772164E+02  0.13261351953E+03  0.15567281127E+02  0.13390946301E+03  0.00000000000E+00 0.  1.
</event>
<event>
12    1  0.8297444E-002  0.1939674E+03  0.7818608E-02  0.1156827E+00
         21   -1    0    0  501  502  0.00000000000E+00  0.00000000000E+00  0.30212767497E+03  0.30212767497E+03  0.00000000000E+00 0. -1.
         21   -1    0    0  502  503 -0.00000000000E+00 -0.00000000000E+00 -0.12426701141E+03  0.12426701141E+03  0.00000000000E+00 0. -1.
         -6    2    1    2    0  503  0.37769219774E+02  0.61970350305E+02  0.43873925145E+02  0.19064947163E+03  0.17074970408E+03 0.  0.
        -24    2    3    3    0    0  0.76475715780E+02  0.54860464594E+01  0.19615342020E+01  0.11022927560E+03  0.79170788640E+02 0.  0.
          6    2    1    2  501    0 -0.37769219774E+02 -0.61970350305E+02  0.13398673842E+03  0.23574521476E+03  0.17987918704E+03 0.  0.
         24    2    5    5    0    0 -0.49855017598E+02  0.11616913121E+02  0.13027694083E+03  0.16093208459E+03  0.79413972876E+02 0.  0.
          5    1    5    5  501    0  0.12085797824E+02 -0.73587263426E+02  0.37097975880E+01  0.74813130169E+02  0.47000000000E+01 0. -1.
        -13    1    6    6    0    0  0.15158989004E+02  0.23439997313E+02  0.31489642532E+02  0.42081183544E+02  0.00000000000E+00 0.  1.
         14    1    6    6    0    0 -0.65014006603E+02 -0.11823084191E+02  0.98787298295E+02  0.11885090104E+03  0.00000000000E+00 0. -1.
         -5    1    3    3    0  503 -0.38706496005E+02  0.56484303846E+02  0.41912390943E+02  0.80420196024E+02  0.47000000000E+01 0.  1.
         13    1    4    4    0    0  0.39882180750E+02  0.37388958709E+02 -0.18263003087E+02  0.57637313057E+02  0.00000000000E+00 0. -1.
        -14    1    4    4    0    0  0.36593535030E+02 -0.31902912249E+02  0.20224537289E+02  0.52591962546E+02  0.00000000000E+00 0.  1.
</event>
<event>
12    1  0.8297444E-002  0.1814085E+03  0.7818608E-02  0.1167939E+00
         21   -1    0    0  501  502  0.00000000000E+00  0.00000000000E+00  0.54392067661E+03  0.54392067661E+03  0.00000000000E+00 0. -1.
         21   -1    0    0  502  503 -0.00000000000E+00 -0.00000000000E+00 -0.75784814072E+02  0.75784814072E+02  0.00000000000E+00 0. -1.
         -6    2    1    2    0  503  0.41627976344E+02 -0.25469758857E+02  0.89121306525E+02  0.20211788757E+03  0.17472102384E+03 0.  0.
        -24    2    3    3    0    0 -0.41097225371E+02 -0.38559588834E+01  0.20911907075E+02  0.92640823669E+02  0.80256862637E+02 0.  0.
          6    2    1    2  501    0 -0.41627976344E+02  0.25469758857E+02  0.37901455602E+03  0.41758760311E+03  0.16836203719E+03 0.  0.
         24    2    5    5    0    0 -0.73169443898E+02  0.70181343311E+01  0.15275261612E+03  0.18834563036E+03  0.82083451532E+02 0.  0.
          5    1    5    5  501    0  0.31541467554E+02  0.18451624526E+02  0.22626193990E+03  0.22924197275E+03  0.47000000000E+01 0. -1.
        -11    1    6    6    0    0 -0.68876361388E+02 -0.26681719603E+02  0.12146737037E+03  0.14216254564E+03  0.00000000000E+00 0.  1.
         12    1    6    6    0    0 -0.42930825099E+01  0.33699853934E+02  0.31285245749E+02  0.46183084719E+02  0.00000000000E+00 0. -1.
         -5    1    3    3    0  503  0.82725201716E+02 -0.21613799974E+02  0.68209399449E+02  0.10947706391E+03  0.47000000000E+01 0.  1.
         13    1    4    4    0    0  0.10735609081E+02 -0.13698204386E+02 -0.19533981499E+02  0.26162387868E+02  0.00000000000E+00 0. -1.
        -14    1    4    4    0    0 -0.51832834453E+02  0.98422455022E+01  0.40445888575E+02  0.66478435801E+02  0.00000000000E+00 0.  1.
</event>
<event>
12    1  0.8297444E-002  0.2137534E+03  0.7818608E-02  0.1138718E+00
         21   -1    0    0  503  502  0.00000000000E+00  0.00000000000E+00  0.16041681964E+03  0.16041681964E+03  0.00000000000E+00 0. -1.
         21   -1    0    0  501  503 -0.00000000000E+00 -0.00000000000E+00 -0.30609618044E+03  0.30609618044E+03  0.00000000000E+00 0.  1.
          6    2    1    2  501    0  0.78149987453E+02  0.10045560863E+03 -0.13529410044E+03  0.25297237853E+03  0.17173171181E+03 0.  0.
         24    2    3    3    0    0  0.50582932428E+02  0.13584439439E+03 -0.12181905181E+03  0.20589822835E+03  0.80881805834E+02 0.  0.
         -6    2    1    2    0  502 -0.78149987453E+02 -0.10045560863E+03 -0.10385260351E+02  0.21354062155E+03  0.17115196047E+03 0.  0.
        -24    2    5    5    0    0  0.23547992902E+02 -0.36812732099E+02  0.20566336831E+01  0.92835254355E+02  0.81880824951E+02 0.  0.
          5    1    3    3  501    0  0.27567055025E+02 -0.35388785753E+02 -0.13475048635E+02  0.47074150184E+02  0.47000000000E+01 0. -1.
        -11    1    4    4    0    0  0.16977753797E+02  0.12450185563E+03 -0.11381833468E+03  0.16953928597E+03  0.00000000000E+00 0.  1.
         12    1    4    4    0    0  0.33605178631E+02  0.11342538759E+02 -0.80007171296E+01  0.36358942378E+02  0.00000000000E+00 0. -1.
         -5    1    5    5    0  502 -0.10169798035E+03 -0.63642876534E+02 -0.12441894034E+02  0.12070536719E+03  0.47000000000E+01 0.  1.
         13    1    6    6    0    0  0.17036009803E+02 -0.57094224569E+02  0.22137095637E+02  0.63561207607E+02  0.00000000000E+00 0. -1.
        -14    1    6    6    0    0  0.65119830987E+01  0.20281492471E+02 -0.20080461954E+02  0.29274046748E+02  0.00000000000E+00 0.  1.
</event>
<event>
12    1  0.8297444E-002  0.1861334E+03  0.7818608E-02  0.1162304E+00
         21   -1    0    0  501  502  0.00000000000E+00  0.00000000000E+00  0.52987236255E+03  0.52987236255E+03  0.00000000000E+00 0.  1.
         21   -1    0    0  502  503 -0.00000000000E+00 -0.00000000000E+00 -0.70025952762E+02  0.70025952762E+02  0.00000000000E+00 0. -1.
         -6    2    1    2    0  503 -0.71690872305E+02  0.14809726325E+01  0.14816999692E+03  0.23687237973E+03  0.17033027283E+03 0.  0.
        -24    2    3    3    0    0 -0.10181313345E+03  0.39763560175E+02  0.11337451349E+03  0.17682470874E+03  0.80412327725E+02 0.  0.
          6    2    1    2  501    0  0.71690872305E+02 -0.14809726325E+01  0.31167641287E+03  0.36302593557E+03  0.17176690342E+03 0.  0.
         24    2    5    5    0    0  0.10432679737E+03  0.20621170997E+02  0.28730880108E+03  0.31644827073E+03  0.79270723016E+02 0.  0.
          5    1    5    5  501    0 -0.32635925067E+02 -0.22102143629E+02  0.24367611789E+02  0.46577664844E+02  0.47000000000E+01 0. -1.
        -13    1    6    6    0    0  0.56877166332E+02 -0.29032044089E+01  0.23576288772E+03  0.24254397513E+03  0.00000000000E+00 0.  1.
         14    1    6    6    0    0  0.47449631040E+02  0.23524375406E+02  0.51545913357E+02  0.73904295598E+02  0.00000000000E+00 0. -1.
         -5    1    3    3    0  503  0.30122261143E+02 -0.38282587543E+02  0.34795483427E+02  0.60047670998E+02  0.47000000000E+01 0.  1.
         13    1    4    4    0    0 -0.49285371156E+01 -0.75804188224E+01 -0.96542579220E+01  0.13227166123E+02  0.00000000000E+00 0. -1.
        -14    1    4    4    0    0 -0.96884596333E+02  0.47343978998E+02  0.12302877141E+03  0.16359754261E+03  0.00000000000E+00 0.  1.
</event>
<event>
12    1  0.8297444E-002  0.1982409E+03  0.7818608E-02  0.1151241E+00
         21   -1    0    0  501  502  0.00000000000E+00  0.00000000000E+00  0.22858463127E+02  0.22858463127E+02  0.00000000000E+00 0. -1.
         21   -1    0    0  502  503 -0.00000000000E+00 -0.00000000000E+00 -0.22225784375E+04  0.22225784375E+04  0.00000000000E+00 0. -1.
         -6    2    1    2    0  503  0.98603465528E+02  0.13493074603E+02 -0.56547320033E+03  0.59921564550E+03  0.17144895173E+03 0.  0.
        -24    2    3    3    0    0 -0.14388540115E+02  0.15860243648E+02 -0.28468832111E+03  0.29650285220E+03  0.80049508272E+02 0.  0.
          6    2    1    2  501    0 -0.98603465528E+02 -0.13493074603E+02 -0.16342467741E+04  0.16462212551E+04  0.17139777090E+03 0.  0.
         24    2    5    5    0    0 -0.10546691947E+03  0.94824856441E+00 -0.16164600246E+04  0.16218467342E+04  0.79496212385E+02 0.  0.
          5    1    5    5  501    0  0.68634539371E+01 -0.14441323167E+02 -0.17786749416E+02  0.24374520909E+02  0.47000000000E+01 0. -1.
        -13    1    6    6    0    0  0.12225494489E+01  0.22217113172E+02 -0.20625341802E+03  0.20745015592E+03  0.00000000000E+00 0.  1.
         14    1    6    6    0    0 -0.10668946891E+03 -0.21268864608E+02 -0.14102066066E+04  0.14143965783E+04  0.00000000000E+00 0. -1.
         -5    1    3    3    0  503  0.11299200564E+03 -0.23671690453E+01 -0.28078487922E+03  0.30271279330E+03  0.47000000000E+01 0.  1.
         13    1    4    4    0    0  0.31222325433E+02 -0.44681851219E+01 -0.13762042752E+03  0.14118845687E+03  0.00000000000E+00 0. -1.
        -14    1    4    4    0    0 -0.45610865548E+02  0.20328428770E+02 -0.14706789359E+03  0.15531439533E+03  0.00000000000E+00 0.  1.
</event>
<event>
12    1  0.8297444E-002  0.1969437E+03  0.7818608E-02  0.1152344E+00
         21   -1    0    0  501  502  0.00000000000E+00  0.00000000000E+00  0.30831511418E+02  0.30831511418E+02  0.00000000000E+00 0. -1.
         21   -1    0    0  502  503 -0.00000000000E+00 -0.00000000000E+00 -0.19843545450E+04  0.19843545450E+04  0.00000000000E+00 0.  1.
         -6    2    1    2    0  503  0.56490718420E+02  0.77977200112E+02 -0.15863583717E+04  0.15985366738E+04  0.17179921150E+03 0.  0.
        -24    2    3    3    0    0 -0.21487417572E+02 -0.45364573396E+01 -0.72509645273E+03  0.72981158702E+03  0.79861118402E+02 0.  0.
          6    2    1    2  501    0 -0.56490718420E+02 -0.77977200112E+02 -0.36716466185E+03  0.41664938257E+03  0.17179980815E+03 0.  0.
         24    2    5    5    0    0 -0.12678985063E+02 -0.81087346542E+02 -0.35204425572E+03  0.36996043664E+03  0.78737870550E+02 0.  0.
          5    1    5    5  501    0 -0.43811733357E+02  0.31101464301E+01 -0.15120406125E+02  0.46688945929E+02  0.47000000000E+01 0. -1.
        -11    1    6    6    0    0  0.23739498566E+02 -0.72521526895E+02 -0.23895718868E+03  0.25084551756E+03  0.00000000000E+00 0.  1.
         12    1    6    6    0    0 -0.36418483628E+02 -0.85658196477E+01 -0.11308706704E+03  0.11911491908E+03  0.00000000000E+00 0. -1.
         -5    1    3    3    0  503  0.77978135991E+02  0.82513657452E+02 -0.86126191898E+03  0.86872508680E+03  0.47000000000E+01 0.  1.
         11    1    4    4    0    0 -0.97557954475E+01  0.80968243224E+01 -0.15583884545E+02  0.20089588508E+02  0.00000000000E+00 0. -1.
        -12    1    4    4    0    0 -0.11731622124E+02 -0.12633281662E+02 -0.70951256818E+03  0.70972199851E+03  0.00000000000E+00 0.  1.
</event>
<event>
12    1  0.8297444E-002  0.2277594E+03  0.7818608E-02  0.1128332E+00
         21   -1    0    0  501  502  0.00000000000E+00  0.00000000000E+00  0.12232780535E+03  0.12232780535E+03  0.00000000000E+00 0. -1.
         21   -1    0    0  502  503 -0.00000000000E+00 -0.00000000000E+00 -0.50684861625E+03  0.50684861625E+03  0.00000000000E+00 0.  1.
         -6    2    1    2    0  503  0.11213204531E+03  0.10287269493E+03 -0.32003439450E+03  0.39246386797E+03  0.16866975736E+03 0.  0.
        -24    2    3    3    0    0  0.11437683584E+03  0.92568381666E+02 -0.33444586619E+03  0.37399772402E+03  0.79807858612E+02 0.  0.
          6    2    1    2  501    0 -0.11213204531E+03 -0.10287269493E+03 -0.64486416403E+02  0.23671255363E+03  0.16946370762E+03 0.  0.
         24    2    5    5    0    0 -0.60854326296E+02  0.26722184674E+01 -0.45610675410E+02  0.11776921918E+03  0.89882509396E+02 0.  0.
          5    1    5    5  501    0 -0.51277719014E+02 -0.10554491340E+03 -0.18875740993E+02  0.11894333445E+03  0.47000000000E+01 0. -1.
        -11    1    6    6    0    0 -0.33456297043E+02 -0.42658962881E+02 -0.32479038306E+02  0.63198092180E+02  0.00000000000E+00 0.  1.
         12    1    6    6    0    0 -0.27398029253E+02  0.45331181349E+02 -0.13131637104E+02  0.54571127004E+02  0.00000000000E+00 0. -1.
         -5    1    3    3    0  503 -0.22447905353E+01  0.10304313266E+02  0.14411471684E+02  0.18466143954E+02  0.47000000000E+01 0.  1.
         11    1    4    4    0    0  0.10285797592E+02  0.53690314052E+02 -0.13574239146E+03  0.14633674963E+03  0.00000000000E+00 0. -1.
        -12    1    4    4    0    0  0.10409103825E+03  0.38878067614E+02 -0.19870347473E+03  0.22766097438E+03  0.00000000000E+00 0.  1.
</event>
<event>
12    1  0.8297444E-002  0.2072083E+03  0.7818608E-02  0.1143965E+00
         21   -1    0    0  503  502  0.00000000000E+00  0.00000000000E+00  0.37943345713E+03  0.37943345713E+03  0.00000000000E+00 0.  1.
         21   -1    0    0  501  503 -0.00000000000E+00 -0.00000000000E+00 -0.30919371107E+03  0.30919371107E+03  0.00000000000E+00 0.  1.
          6    2    1    2  501    0 -0.10764734504E+03 -0.42736021184E+02  0.30957481377E+03  0.37205716782E+03  0.17080881828E+03 0.  0.
         24    2    3    3    0    0 -0.56235267186E+01 -0.50506498668E+02  0.20356726837E+03  0.22464980876E+03  0.80283082655E+02 0.  0.
         -6    2    1    2    0  502  0.10764734504E+03  0.42736021184E+02 -0.23933506772E+03  0.31657000038E+03  0.17181668167E+03 0.  0.
        -24    2    5    5    0    0  0.41345638989E+02  0.14697610168E+02 -0.24701115840E+02  0.90137025714E+02  0.74759993798E+02 0.  0.
          5    1    3    3  501    0 -0.10202381832E+03  0.77704774839E+01  0.10600754540E+03  0.14740735906E+03  0.47000000000E+01 0. -1.
        -13    1    4    4    0    0 -0.78435289663E+00 -0.31941769764E+02  0.20295531299E+03  0.20545498518E+03  0.00000000000E+00 0.  1.
         14    1    4    4    0    0 -0.48391738219E+01 -0.18564728904E+02  0.61195538129E+00  0.19194823572E+02  0.00000000000E+00 0. -1.
         -5    1    5    5    0  502  0.66301706047E+02  0.28038411016E+02 -0.21463395188E+03  0.22643297466E+03  0.47000000000E+01 0.  1.
         13    1    6    6    0    0  0.58662691754E+02  0.27137996620E+02 -0.23519650319E+02  0.68781946872E+02  0.00000000000E+00 0. -1.
        -14    1    6    6    0    0 -0.17317052765E+02 -0.12440386452E+02 -0.11814655213E+01  0.21355078841E+02  0.00000000000E+00 0.  1.
</event>
<event>
12    1  0.8297444E-002  0.2579897E+03  0.7818608E-02  0.1109301E+00
         21   -1    0    0  503  502  0.00000000000E+00  0.00000000000E+00  0.21419720921E+03  0.21419720921E+03  0.00000000000E+00 0.  1.
         21   -1    0    0  501  503 -0.00000000000E+00 -0.00000000000E+00 -0.36325993969E+03  0.36325993969E+03  0.00000000000E+00 0. -1.
          6    2    1    2  501    0 -0.18484515646E+03 -0.20316234512E+02 -0.19249410534E+03  0.32188918542E+03  0.17882445539E+03 0.  0.
         24    2    3    3    0    0 -0.39381533562E+02  0.47539065036E+02 -0.84294438125E+02  0.12825740794E+03  0.74387784626E+02 0.  0.
         -6    2    1    2    0  502  0.18484515646E+03  0.20316234512E+02  0.43431374857E+02  0.25556796348E+03  0.16984763284E+03 0.  0.
        -24    2    5    5    0    0  0.10471684377E+03  0.38849666567E+02  0.86697169956E+02  0.16251930081E+03  0.80132452199E+02 0.  0.
          5    1    3    3  501    0 -0.14546362290E+03 -0.67855299548E+02 -0.10819966722E+03  0.19363177748E+03  0.47000000000E+01 0. -1.
        -13    1    4    4    0    0 -0.20580583774E+02  0.32430818066E+02  0.21904400530E+01  0.38472281145E+02  0.00000000000E+00 0.  1.
         14    1    4    4    0    0 -0.18800949788E+02  0.15108246971E+02 -0.86484878178E+02  0.89785126791E+02  0.00000000000E+00 0. -1.
         -5    1    5    5    0  502  0.80128312693E+02 -0.18533432055E+02 -0.43265795098E+02  0.93048662667E+02  0.47000000000E+01 0.  1.
         13    1    6    6    0    0 -0.75091153901E+01 -0.96998674574E+01 -0.59413294341E+00  0.12281174072E+02  0.00000000000E+00 0. -1.
        -14    1    6    6    0    0  0.11222595916E+03  0.48549534024E+02  0.87291302899E+02  0.15023812674E+03  0.00000000000E+00 0.  1.
</event>
<event>
12    1  0.8297444E-002  0.2681013E+03  0.7818608E-02  0.1102465E+00
         21   -1    0    0  503  502  0.00000000000E+00  0.00000000000E+00  0.57290455572E+02  0.57290455572E+02  0.00000000000E+00 0.  1.
         21   -1    0    0  501  503 -0.00000000000E+00 -0.00000000000E+00 -0.13602766446E+04  0.13602766446E+04  0.00000000000E+00 0. -1.
          6    2    1    2  501    0  0.14915216072E+03  0.14025169119E+03 -0.45188433762E+03  0.52543100598E+03  0.17309356870E+03 0.  0.
         24    2    3    3    0    0  0.57590513392E+02 -0.20274314976E+01 -0.21377158555E+03  0.23328950480E+03  0.73518191950E+02 0.  0.
         -6    2    1    2    0  502 -0.14915216072E+03 -0.14025169119E+03 -0.85110185142E+03  0.89213609421E+03  0.17209167665E+03 0.  0.
        -24    2    5    5    0    0 -0.11697141501E+02 -0.17153635004E+02 -0.24878987511E+03  0.26217671413E+03  0.80057211800E+02 0.  0.
          5    1    3    3  501    0  0.91561647332E+02  0.14227912268E+03 -0.23811275207E+03  0.29214150118E+03  0.47000000000E+01 0. -1.
        -13    1    4    4    0    0  0.66713045255E+02  0.58176815507E+00 -0.21362463625E+03  0.22380003144E+03  0.00000000000E+00 0.  1.
         14    1    4    4    0    0 -0.91225318634E+01 -0.26091996527E+01 -0.14694930292E+00  0.94894733534E+01  0.00000000000E+00 0. -1.
         -5    1    5    5    0  502 -0.13745501922E+03 -0.12309805618E+03 -0.60231197631E+03  0.62995938008E+03  0.47000000000E+01 0.  1.
         11    1    6    6    0    0 -0.31001105181E+02 -0.95343183253E+01 -0.23507307088E+03  0.23730006406E+03  0.00000000000E+00 0. -1.
        -12    1    6    6    0    0  0.19303963680E+02 -0.76193166791E+01 -0.13716804224E+02  0.24876650066E+02  0.00000000000E+00 0.  1.
</event>
<event>
12    1  0.8297444E-002  0.2481996E+03  0.7818608E-02  0.1114871E+00
         21   -1    0    0  501  502  0.00000000000E+00  0.00000000000E+00  0.91737247022E+03  0.91737247022E+03  0.00000000000E+00 0.  1.
         21   -1    0    0  502  503 -0.00000000000E+00 -0.00000000000E+00 -0.75189473758E+02  0.75189473758E+02  0.00000000000E+00 0. -1.
         -6    2    1    2    0  503 -0.95147882776E+02 -0.15124707433E+03  0.25378302261E+03  0.35497730133E+03  0.17226219785E+03 0.  0.
        -24    2    3    3    0    0 -0.13255161422E+03 -0.11019630144E+03  0.21586154965E+03  0.28756563177E+03  0.79903871481E+02 0.  0.
          6    2    1    2  501    0  0.95147882776E+02  0.15124707433E+03  0.58839997385E+03  0.63758464265E+03  0.16843648719E+03 0.  0.
         24    2    5    5    0    0  0.71440761827E+01  0.29057613665E+02  0.28350980005E+03  0.29750370764E+03  0.85060370319E+02 0.  0.
          5    1    5    5  501    0  0.88003806593E+02  0.12218946066E+03  0.30489017380E+03  0.34008093500E+03  0.47000000000E+01 0. -1.
        -11    1    6    6    0    0  0.10302483603E+02  0.56157450719E+02  0.23511469812E+03  0.24194776650E+03  0.00000000000E+00 0.  1.
         12    1    6    6    0    0 -0.31584074204E+01 -0.27099837053E+02  0.48395101929E+02  0.55555941145E+02  0.00000000000E+00 0. -1.
         -5    1    3    3    0  503  0.37403731447E+02 -0.41050772890E+02  0.37921472958E+02  0.67411669556E+02  0.47000000000E+01 0.  1.
         13    1    4    4    0    0 -0.10058786732E+02 -0.20764985024E+02 -0.80959021815E+00  0.23087209227E+02  0.00000000000E+00 0. -1.
        -14    1    4    4    0    0 -0.12249282749E+03 -0.89431316412E+02  0.21667113986E+03  0.26447842255E+03  0.00000000000E+00 0.  1.
</event>
<event>
12    1  0.8297444E-002  0.2012726E+03  0.7818608E-02  0.1148847E+00
         21   -1    0    0  501  502  0.00000000000E+00  0.00000000000E+00  0.36350238583E+02  0.36350238583E+02  0.00000000000E+00 0.  1.
         21   -1    0    0  502  503 -0.00000000000E+00 -0.00000000000E+00 -0.21964925028E+04  0.21964925028E+04  0.00000000000E+00 0.  1.
         -6    2    1    2    0  503  0.32227690820E+02  0.97716476164E+02 -0.18641955790E+04  0.18749390014E+04  0.17199990809E+03 0.  0.
        -24    2    3    3    0    0  0.72763305154E+02  0.63864695131E+02 -0.16323795805E+04  0.16371369277E+04  0.78619509089E+02 0.  0.
          6    2    1    2  501    0 -0.32227690820E+02 -0.97716476164E+02 -0.29594668522E+03  0.35790374000E+03  0.17298414044E+03 0.  0.
         24    2    5    5    0    0 -0.88366994072E+01  0.89940858358E-01 -0.63827537281E+02  0.10489262853E+03  0.82767225748E+02 0.  0.
          5    1    5    5  501    0 -0.23390991413E+02 -0.97806417022E+02 -0.23211914793E+03  0.25301111147E+03  0.47000000000E+01 0. -1.
        -11    1    6    6    0    0  0.31943057143E+02 -0.11974162964E+02 -0.85855308757E+01  0.35177419160E+02  0.00000000000E+00 0.  1.
         12    1    6    6    0    0 -0.40779756550E+02  0.12064103822E+02 -0.55242006405E+02  0.69715209366E+02  0.00000000000E+00 0. -1.
         -5    1    3    3    0  503 -0.40535614333E+02  0.33851781032E+02 -0.23181599854E+03  0.23780207376E+03  0.47000000000E+01 0.  1.
         11    1    4    4    0    0 -0.10410194005E+02 -0.84876775591E+01 -0.25464224169E+03  0.25499624323E+03  0.00000000000E+00 0. -1.
        -12    1    4    4    0    0  0.83173499158E+02  0.72352372691E+02 -0.13777373388E+04  0.13821406844E+04  0.00000000000E+00 0.  1.
</event>
<event>
12    1  0.8297444E-002  0.2071281E+03  0.7818608E-02  0.1144060E+00
         21   -1    0    0  503  502  0.00000000000E+00  0.00000000000E+00  0.10391735657E+03  0.10391735657E+03  0.00000000000E+00 0.  1.
         21   -1    0    0  501  503 -0.00000000000E+00 -0.00000000000E+00 -0.43351195865E+03  0.43351195865E+03  0.00000000000E+00 0. -1.
          6    2    1    2  501    0  0.11552202872E+03 -0.91450001526E+01 -0.22581369812E+03  0.30575595736E+03  0.17048726947E+03 0.  0.
         24    2    3    3    0    0 -0.25782304487E+01  0.22918282164E+02 -0.81601607597E+02  0.11656044382E+03  0.79972618882E+02 0.  0.
         -6    2    1    2    0  502 -0.11552202872E+03  0.91450001526E+01 -0.10378090396E+03  0.23167335786E+03  0.17167730942E+03 0.  0.
        -24    2    5    5    0    0 -0.14871675021E+03 -0.88274523483E+01 -0.75929617276E+02  0.18452802136E+03  0.78042861174E+02 0.  0.
          5    1    3    3  501    0  0.11810025917E+03 -0.32063282317E+02 -0.14421209053E+03  0.18919551354E+03  0.47000000000E+01 0. -1.
        -11    1    4    4    0    0 -0.95349289651E+01 -0.27654697291E+02 -0.15699008756E+02  0.33198735345E+02  0.00000000000E+00 0.  1.
         12    1    4    4    0    0  0.69566985164E+01  0.50572979455E+02 -0.65902598842E+02  0.83361708472E+02  0.00000000000E+00 0. -1.
         -5    1    5    5    0  502  0.33194721491E+02  0.17972452501E+02 -0.27851286683E+02  0.47145336500E+02  0.47000000000E+01 0.  1.
         11    1    6    6    0    0 -0.84487289439E+02 -0.46802349701E+01 -0.84515540429E+02  0.11959466230E+03  0.00000000000E+00 0. -1.
        -12    1    6    6    0    0 -0.64229460774E+02 -0.41472173782E+01  0.85859231529E+01  0.64933359067E+02  0.00000000000E+00 0.  1.
</event>
<event>
12    1  0.8297444E-002  0.2323280E+03  0.7818608E-02  0.1125357E+00
         21   -1    0    0  503  502  0.00000000000E+00  0.00000000000E+00  0.17989058209E+03  0.17989058209E+03  0.00000000000E+00 0. -1.
         21   -1    0    0  501  503 -0.00000000000E+00 -0.00000000000E+00 -0.31307836104E+03  0.31307836104E+03  0.00000000000E+00 0.  1.
          6    2    1    2  501    0 -0.13930333862E+03  0.64523080892E+02 -0.11881811245E+02  0.23263162737E+03  0.17437788993E+03 0.  0.
         24    2    3    3    0    0 -0.94903630266E+02  0.24197640434E+02  0.58834461724E+02  0.13978575233E+03  0.80537803714E+02 0.  0.
         -6    2    1    2    0  502  0.13930333862E+03 -0.64523080892E+02 -0.12130596771E+03  0.26033731575E+03  0.17173156976E+03 0.  0.
        -24    2    5    5    0    0  0.45283335415E+02 -0.93370833230E+02 -0.58860245238E+02  0.14374609793E+03  0.80185530101E+02 0.  0.
          5    1    3    3  501    0 -0.44399708354E+02  0.40325440458E+02 -0.70716272969E+02  0.92845875044E+02  0.47000000000E+01 0. -1.
        -11    1    4    4    0    0 -0.83204531774E+02 -0.15420402034E+01  0.10621400165E+02  0.83893898092E+02  0.00000000000E+00 0.  1.
         12    1    4    4    0    0 -0.11699098492E+02  0.25739680638E+02  0.48213061559E+02  0.55891854234E+02  0.00000000000E+00 0. -1.
         -5    1    5    5    0  502  0.94020003205E+02  0.28847752338E+02 -0.62445722471E+02  0.11659121782E+03  0.47000000000E+01 0.  1.
         13    1    6    6    0    0  0.66697461141E+02 -0.60783873843E+02 -0.29514109753E+02  0.94943737637E+02  0.00000000000E+00 0. -1.
        -14    1    6    6    0    0 -0.21414125726E+02 -0.32586959388E+02 -0.29346135484E+02  0.48802360298E+02  0.00000000000E+00 0.  1.
</event>
<event>
12    1  0.8297444E-002  0.1816488E+03  0.7818608E-02  0.1168245E+00
         21   -1    0    0  501  502  0.00000000000E+00  0.00000000000E+00  0.85699692647E+03  0.85699692647E+03  0.00000000000E+00 0.  1.
         21   -1    0    0  502  503 -0.00000000000E+00 -0.00000000000E+00 -0.23334791998E+03  0.23334791998E+03  0.00000000000E+00 0.  1.
         -6    2    1    2    0  503 -0.48493751796E+02 -0.31336018615E+02 -0.18738998775E+03  0.26098141465E+03  0.17222863077E+03 0.  0.
        -24    2    3    3    0    0  0.35940975180E+02 -0.44199822343E+02 -0.97648497761E+02  0.13700429744E+03  0.77392314929E+02 0.  0.
          6    2    1    2  501    0  0.48493751796E+02  0.31336018615E+02  0.81103899424E+03  0.82936343180E+03  0.16348046306E+03 0.  0.
         24    2    5    5    0    0  0.65495325462E+02  0.26655419493E+02  0.30690681256E+03  0.32490103665E+03  0.79804404482E+02 0.  0.
          5    1    5    5  501    0 -0.17001573666E+02  0.46805991216E+01  0.50413218167E+03  0.50446239514E+03  0.47000000000E+01 0. -1.
        -11    1    6    6    0    0 -0.57959174211E+00  0.30307959249E+02  0.17184854220E+03  0.17450166124E+03  0.00000000000E+00 0.  1.
         12    1    6    6    0    0  0.66074917204E+02 -0.36525397554E+01  0.13505827037E+03  0.15039937541E+03  0.00000000000E+00 0. -1.
         -5    1    3    3    0  503 -0.84434726977E+02  0.12863803729E+02 -0.89741489987E+02  0.12397711721E+03  0.47000000000E+01 0.  1.
         13    1    4    4    0    0  0.91968590648E+01 -0.36739382737E+02 -0.25760774726E+01  0.37960514166E+02  0.00000000000E+00 0. -1.
        -14    1    4    4    0    0  0.26744116115E+02 -0.74604396060E+01 -0.95072420288E+02  0.99043783274E+02  0.00000000000E+00 0.  1.
</event>
<event>
12    1  0.8297444E-002  0.2014601E+03  0.7818608E-02  0.1148750E+00
         21   -1    0    0  503  502  0.00000000000E+00  0.00000000000E+00  0.70125119060E+02  0.70125119060E+02  0.00000000000E+00 0.  1.
         21   -1    0    0  501  503 -0.00000000000E+00 -0.00000000000E+00 -0.93853182921E+03  0.93853182921E+03  0.00000000000E+00 0.  1.
          6    2    1    2  501    0  0.10366382102E+03  0.11298639336E+02 -0.74860639435E+03  0.77524042881E+03  0.17237268274E+03 0.  0.
         24    2    3    3    0    0  0.94420717050E+02 -0.18760731234E+02 -0.29071157554E+03  0.31624287345E+03  0.78924635003E+02 0.  0.
         -6    2    1    2    0  502 -0.10366382102E+03 -0.11298639336E+02 -0.11980031580E+03  0.23341651947E+03  0.17104768006E+03 0.  0.
        -24    2    5    5    0    0  0.12053993555E+02 -0.52355272430E+02 -0.60077636343E+02  0.96796066484E+02  0.53607674696E+02 0.  0.
          5    1    3    3  501    0  0.92431039697E+01  0.30059370570E+02 -0.45789481881E+03  0.45899755535E+03  0.47000000000E+01 0. -1.
        -11    1    4    4    0    0  0.33063947005E+01  0.20882928975E+02 -0.87775632186E+02  0.90286159372E+02  0.00000000000E+00 0.  1.
         12    1    4    4    0    0  0.91114322349E+02 -0.39643660210E+02 -0.20293594335E+03  0.22595671408E+03  0.00000000000E+00 0. -1.
         -5    1    5    5    0  502 -0.11571781457E+03  0.41056633094E+02 -0.59722679459E+02  0.13662045298E+03  0.47000000000E+01 0.  1.
         11    1    6    6    0    0  0.12223932219E+02 -0.23154890429E+02 -0.62231936712E+02  0.67515830860E+02  0.00000000000E+00 0. -1.
        -12    1    6    6    0    0 -0.16993866347E+00 -0.29200382001E+02  0.21543003690E+01  0.29280235625E+02  0.00000000000E+00 0.  1.
</event>
<event>
12    1  0.8297444E-002  0.3012867E+03  0.7818608E-02  0.1084642E+00
         21   -1    0    0  501  502  0.00000000000E+00  0.00000000000E+00  0.18667759034E+03  0.18667759034E+03  0.00000000000E+00 0. -1.
         21   -1    0    0  502  503 -0.00000000000E+00 -0.00000000000E+00 -0.48845558012E+03  0.48845558012E+03  0.00000000000E+00 0. -1.
         -6    2    1    2    0  503  0.20640437774E+03  0.13567617916E+03 -0.17614055793E+03  0.34870026849E+03  0.17191738816E+03 0.  0.
        -24    2    3    3    0    0  0.57660636920E+02  0.32469804899E+02 -0.12188762801E+03  0.15964544436E+03  0.79063498288E+02 0.  0.
          6    2    1    2  501    0 -0.20640437774E+03 -0.13567617916E+03 -0.12563743185E+03  0.32643290197E+03  0.17251922346E+03 0.  0.
         24    2    5    5    0    0 -0.68121284436E+02 -0.38843542892E+02  0.64780582898E+01  0.11201423189E+03  0.79723852703E+02 0.  0.
          5    1    5    5  501    0 -0.13828309331E+03 -0.96832636272E+02 -0.13211549014E+03  0.21441867008E+03  0.47000000000E+01 0. -1.
        -11    1    6    6    0    0 -0.65574521566E+01 -0.29132994206E+02 -0.27873625866E+02  0.40849364121E+02  0.00000000000E+00 0.  1.
         12    1    6    6    0    0 -0.61563832279E+02 -0.97105486855E+01  0.34351684156E+02  0.71164867772E+02  0.00000000000E+00 0. -1.
         -5    1    3    3    0  503  0.14874374083E+03  0.10320637427E+03 -0.54252929923E+02  0.18905482414E+03  0.47000000000E+01 0.  1.
         13    1    4    4    0    0  0.74269321137E+02  0.17708029748E+02 -0.71617343409E+02  0.10468309442E+03  0.00000000000E+00 0. -1.
        -14    1    4    4    0    0 -0.16608684217E+02  0.14761775151E+02 -0.50270284600E+02  0.54962349939E+02  0.00000000000E+00 0.  1.
</event>
<event>
12    1  0.8297444E-002  0.2055790E+03  0.7818608E-02  0.1145531E+00
         21   -1    0    0  503  502  0.00000000000E+00  0.00000000000E+00  0.73788197766E+03  0.73788197766E+03  0.00000000000E+00 0. -1.
         21   -1    0    0  501  503 -0.00000000000E+00 -0.00000000000E+00 -0.14708026465E+03  0.14708026465E+03  0.00000000000E+00 0.  1.
          6    2    1    2  501    0 -0.59909805974E+02  0.92152487953E+02 -0.51999442895E+02  0.21008741491E+03  0.17132283547E+03 0.  0.
         24    2    3    3    0    0 -0.73675812760E+01  0.86859700616E+02 -0.86468421771E+02  0.14685056269E+03  0.80556880239E+02 0.  0.
         -6    2    1    2    0  502  0.59909805974E+02 -0.92152487953E+02  0.64280115591E+03  0.67487482740E+03  0.17372806546E+03 0.  0.
        -24    2    5    5    0    0  0.99552225164E+02 -0.87838395399E+02  0.58269270849E+03  0.60258894879E+03  0.77177842970E+02 0.  0.
          5    1    3    3  501    0 -0.52542224698E+02  0.52927873374E+01  0.34468978876E+02  0.63236852221E+02  0.47000000000E+01 0. -1.
        -11    1    4    4    0    0 -0.21488218343E+02  0.78524633844E+02 -0.97551110681E+02  0.12705935952E+03  0.00000000000E+00 0.  1.
         12    1    4    4    0    0  0.14120637067E+02  0.83350667716E+01  0.11082688909E+02  0.19791203165E+02  0.00000000000E+00 0. -1.
         -5    1    5    5    0  502 -0.39642419190E+02 -0.43140925540E+01  0.60108447421E+02  0.72285878601E+02  0.47000000000E+01 0.  1.
         13    1    6    6    0    0  0.81116395770E+02 -0.24239045524E+02  0.26999975485E+03  0.28296160271E+03  0.00000000000E+00 0. -1.
        -14    1    6    6    0    0  0.18435829394E+02 -0.63599349875E+02  0.31269295363E+03  0.31962734608E+03  0.00000000000E+00 0.  1.
</event>
<event>
12    1  0.8297444E-002  0.2106679E+03  0.7818608E-02  0.1141452E+00
         21   -1    0    0  501  502  0.00000000000E+00  0.00000000000E+00  0.85324931054E+03  0.85324931054E+03  0.00000000000E+00 0. -1.
         21   -1    0    0  502  503 -0.00000000000E+00 -0.00000000000E+00 -0.53617961300E+02  0.53617961300E+02  0.00000000000E+00 0. -1.
         -6    2    1    2    0  503 -0.12139718033E+03 -0.13789143381E+01  0.49185371084E+03  0.53507107612E+03  0.17216796115E+03 0.  0.
        -24    2    3    3    0    0 -0.14879244780E+03 -0.28542966445E+02  0.40762739550E+03  0.44231036999E+03  0.80774230938E+02 0.  0.
          6    2    1    2  501    0  0.12139718033E+03  0.13789143381E+01  0.30777763841E+03  0.37179619572E+03  0.16960589510E+03 0.  0.
         24    2    5    5    0    0  0.11717334511E+03  0.10752566315E+02  0.32293535040E+03  0.35288714053E+03  0.79980515889E+02 0.  0.
          5    1    5    5  501    0  0.42238352201E+01 -0.93736519770E+01 -0.15157711996E+02  0.18909055194E+02  0.47000000000E+01 0. -1.
        -11    1    6    6    0    0 -0.10854087935E+02 -0.44556993111E+01  0.14945616335E+02  0.19000945473E+02  0.00000000000E+00 0.  1.
         12    1    6    6    0    0  0.12802743304E+03  0.15208265626E+02  0.30798973407E+03  0.33388619505E+03  0.00000000000E+00 0. -1.
         -5    1    3    3    0  503  0.27395267476E+02  0.27164052107E+02  0.84226315334E+02  0.92760706130E+02  0.47000000000E+01 0.  1.
         13    1    4    4    0    0 -0.66992781741E+02 -0.53607381646E+02  0.21798230150E+03  0.23426068373E+03  0.00000000000E+00 0. -1.
        -14    1    4    4    0    0 -0.81799666063E+02  0.25064415201E+02  0.18964509400E+03  0.20804968626E+03  0.00000000000E+00 0.  1.
</event>
<event>
12    1  0.8297444E-002  0.1908585E+03  0.7818608E-02  0.1158854E+00
         21   -1    0    0  503  502  0.00000000000E+00  0.00000000000E+00  0.35606618472E+02  0.35606618472E+02  0.00000000000E+00 0. -1.
         21   -1    0    0  501  503 -0.00000000000E+00 -0.00000000000E+00 -0.14144965855E+04  0.14144965855E+04  0.00000000000E+00 0. -1.
          6    2    1    2  501    0  0.76890497975E+02  0.23971669278E+02 -0.10773019837E+04  0.10931966555E+04  0.16736957273E+03 0.  0.
         24    2    3    3    0    0  0.36663682173E+02  0.74885393902E+02 -0.51076689027E+03  0.52293837527E+03  0.75031195689E+02 0.  0.
         -6    2    1    2    0  502 -0.76890497975E+02 -0.23971669278E+02 -0.30158798335E+03  0.35690654850E+03  0.17303231796E+03 0.  0.
        -24    2    5    5    0    0 -0.75603554879E+02 -0.21643457072E+01 -0.80949651852E+02  0.13513960122E+03  0.77390463104E+02 0.  0.
          5    1    3    3  501    0  0.40226815802E+02 -0.50913724624E+02 -0.56653509344E+03  0.57025828023E+03  0.47000000000E+01 0. -1.
        -11    1    4    4    0    0 -0.10673589206E+02  0.18495629144E+02 -0.31541865932E+02  0.38090722105E+02  0.00000000000E+00 0.  1.
         12    1    4    4    0    0  0.47337271379E+02  0.56389764759E+02 -0.47922502434E+03  0.48484765317E+03  0.00000000000E+00 0. -1.
         -5    1    5    5    0  502 -0.12869430955E+01 -0.21807323571E+02 -0.22063833150E+03  0.22176694729E+03  0.47000000000E+01 0.  1.
         11    1    6    6    0    0 -0.60173410113E+02 -0.36255579314E+02 -0.59116391716E+02  0.91815325984E+02  0.00000000000E+00 0. -1.
        -12    1    6    6    0    0 -0.15430144767E+02  0.34091233607E+02 -0.21833260136E+02  0.43324275234E+02  0.00000000000E+00 0.  1.
</event>
<event>
12    1  0.8297444E-002  0.1755267E+03  0.7818608E-02  0.1172411E+00
         21   -1    0    0  501  502  0.00000000000E+00  0.00000000000E+00  0.17735070481E+03  0.17735070481E+03  0.00000000000E+00 0.  1.
         21   -1    0    0  502  503 -0.00000000000E+00 -0.00000000000E+00 -0.11220486538E+04  0.11220486538E+04  0.00000000000E+00 0.  1.
         -6    2    1    2    0  503  0.20193683415E+02  0.18840316587E+02 -0.10697251354E+04  0.10838966234E+04  0.17250299323E+03 0.  0.
        -24    2    3    3    0    0 -0.33853926049E+02  0.58114405207E+02 -0.50058961529E+03  0.51083386217E+03  0.76406147705E+02 0.  0.
          6    2    1    2  501    0 -0.20193683415E+02 -0.18840316587E+02  0.12502718634E+03  0.21550273522E+03  0.17334038532E+03 0.  0.
         24    2    5    5    0    0 -0.51502987564E+02  0.31647181221E+02  0.30564347523E+02  0.10381308539E+03  0.78669406710E+02 0.  0.
          5    1    5    5  501    0  0.31309304149E+02 -0.50487497808E+02  0.94462838814E+02  0.11168964983E+03  0.47000000000E+01 0. -1.
        -11    1    6    6    0    0 -0.34514411128E+02  0.64624743089E+01  0.54708680370E+02  0.65008059943E+02  0.00000000000E+00 0.  1.
         12    1    6    6    0    0 -0.16988576436E+02  0.25184706912E+02 -0.24144332847E+02  0.38805025451E+02  0.00000000000E+00 0. -1.
         -5    1    3    3    0  503  0.54047609464E+02 -0.39274088620E+02 -0.56913552006E+03  0.57306276124E+03  0.47000000000E+01 0.  1.
         11    1    4    4    0    0  0.19012121700E+02  0.38315331649E+02 -0.27397208511E+03  0.27729087405E+03  0.00000000000E+00 0. -1.
        -12    1    4    4    0    0 -0.52866047749E+02  0.19799073558E+02 -0.22661753018E+03  0.23354298813E+03  0.00000000000E+00 0.  1.
</event>
<event>
12    1  0.8297444E-002  0.1769645E+03  0.7818608E-02  0.1171669E+00
         21   -1    0    0  501  502  0.00000000000E+00  0.00000000000E+00  0.20998275048E+03  0.20998275048E+03  0.00000000000E+00 0. -1.
         21   -1    0    0  502  503 -0.00000000000E+00 -0.00000000000E+00 -0.17057986630E+03  0.17057986630E+03  0.00000000000E+00 0. -1.
         -6    2    1    2    0  503  0.10597787851E+02  0.48001428735E+02 -0.52153547686E+02  0.18448966105E+03  0.16999997714E+03 0.  0.
        -24    2    3    3    0    0  0.64965968032E+02  0.11804998107E+02 -0.50525932875E+02  0.11898531206E+03  0.85115801178E+02 0.  0.
          6    2    1    2  501    0 -0.10597787851E+02 -0.48001428735E+02  0.91556431859E+02  0.19607295574E+03  0.16626958077E+03 0.  0.
         24    2    5    5    0    0  0.56046514604E+02 -0.17888053337E+02  0.54577734212E+02  0.11398889816E+03  0.80953971994E+02 0.  0.
          5    1    5    5  501    0 -0.66644302455E+02 -0.30113375398E+02  0.36978697646E+02  0.82084057570E+02  0.47000000000E+01 0. -1.
        -13    1    6    6    0    0  0.30036003193E+02  0.29993551696E+02  0.10054405168E+02  0.43621848819E+02  0.00000000000E+00 0.  1.
         14    1    6    6    0    0  0.26010511411E+02 -0.47881605033E+02  0.44523329044E+02  0.70367049345E+02  0.00000000000E+00 0. -1.
         -5    1    3    3    0  503 -0.54368180181E+02  0.36196430628E+02 -0.16276148111E+01  0.65504348988E+02  0.47000000000E+01 0.  1.
         11    1    4    4    0    0  0.12517355861E+01  0.30948559394E+02  0.61622575983E+01  0.31580905453E+02  0.00000000000E+00 0. -1.
        -12    1    4    4    0    0  0.63714232446E+02 -0.19143561287E+02 -0.56688190473E+02  0.87404406605E+02  0.00000000000E+00 0.  1.
</event>
<event>
12    1  0.8297444E-002  0.1831919E+03  0.7818608E-02  0.1165110E+00
         21   -1    0    0  503  502  0.00000000000E+00  0.00000000000E+00  0.37636487290E+03  0.37636487290E+03  0.00000000000E+00 0. -1.
         21   -1    0    0  501  503 -0.00000000000E+00 -0.00000000000E+00 -0.14371873549E+03  0.14371873549E+03  0.00000000000E+00 0. -1.
          6    2    1    2  501    0  0.53403436325E+02 -0.27725830824E+02 -0.45264709622E+02  0.18722669414E+03  0.17141847145E+03 0.  0.
         24    2    3    3    0    0  0.22915734852E+02 -0.83699849287E+02 -0.28069772128E+02  0.12104250751E+03  0.79577514683E+02 0.  0.
         -6    2    1    2    0  502 -0.53403436325E+02  0.27725830824E+02  0.27791084703E+03  0.33285691425E+03  0.17302785257E+03 0.  0.
        -24    2    5    5    0    0 -0.34562422599E+02  0.87527091175E+01  0.29069861873E+03  0.30284724497E+03  0.77068773703E+02 0.  0.
          5    1    3    3  501    0  0.30487701473E+02  0.55974018463E+02 -0.17194937494E+02  0.66184186627E+02  0.47000000000E+01 0. -1.
        -11    1    4    4    0    0 -0.22254348808E+02 -0.21626320533E+02  0.13385948792E+02  0.33795523457E+02  0.00000000000E+00 0.  1.
         12    1    4    4    0    0  0.45170083660E+02 -0.62073528754E+02 -0.41455720919E+02  0.87246984055E+02  0.00000000000E+00 0. -1.
         -5    1    5    5    0  502 -0.18841013727E+02  0.18973121707E+02 -0.12787771701E+02  0.30009669286E+02  0.47000000000E+01 0.  1.
         11    1    6    6    0    0 -0.48080862681E+02  0.23518172916E+02  0.12546148023E+03  0.13640182123E+03  0.00000000000E+00 0. -1.
        -12    1    6    6    0    0  0.13518440083E+02 -0.14765463798E+02  0.16523713850E+03  0.16644542373E+03  0.00000000000E+00 0.  1.
</event>
<event>
12    1  0.8297444E-002  0.1858302E+03  0.7818608E-02  0.1162612E+00
         21   -1    0    0  503  502  0.00000000000E+00  0.00000000000E+00  0.56003995025E+02  0.56003995025E+02  0.00000000000E+00 0. -1.
         21   -1    0    0  501  503 -0.00000000000E+00 -0.00000000000E+00 -0.63551557570E+03  0.63551557570E+03  0.00000000000E+00 0. -1.
          6    2    1    2  501    0 -0.42264279744E+02  0.50537736289E+02 -0.35538965551E+03  0.40037782121E+03  0.17222154434E+03 0.  0.
         24    2    3    3    0    0 -0.82845729847E+02  0.17924905096E+02 -0.17390810675E+03  0.21151783764E+03  0.85504671626E+02 0.  0.
         -6    2    1    2    0  502  0.42264279744E+02 -0.50537736289E+02 -0.22412192516E+03  0.29114174951E+03  0.17376003235E+03 0.  0.
        -24    2    5    5    0    0  0.40127151392E+02 -0.38108222127E+02 -0.24632585997E+03  0.26517706463E+03  0.81117331334E+02 0.  0.
          5    1    3    3  501    0  0.40581450104E+02  0.32612831193E+02 -0.18148154876E+03  0.18885998356E+03  0.47000000000E+01 0. -1.
        -13    1    4    4    0    0 -0.67466866647E+02  0.25011554803E+02 -0.52840800698E+02  0.89272090752E+02  0.00000000000E+00 0.  1.
         14    1    4    4    0    0 -0.15378863201E+02 -0.70866497070E+01 -0.12106730606E+03  0.12224574689E+03  0.00000000000E+00 0. -1.
         -5    1    5    5    0  502  0.21371283517E+01 -0.12429514162E+02  0.22203934815E+02  0.25964684885E+02  0.47000000000E+01 0.  1.
         13    1    6    6    0    0  0.11820238234E+02  0.12591587325E+02 -0.65506872835E+01  0.18470993670E+02  0.00000000000E+00 0. -1.
        -14    1    6    6    0    0  0.28306913158E+02 -0.50699809452E+02 -0.23977517269E+03  0.24670607096E+03  0.00000000000E+00 0.  1.
</event>
<event>
12    1  0.8297444E-002  0.2090851E+03  0.7818608E-02  0.1142733E+00
         21   -1    0    0  503  502  0.00000000000E+00  0.00000000000E+00  0.88634700477E+03  0.88634700477E+03  0.00000000000E+00 0. -1.
         21   -1    0    0  501  503 -0.00000000000E+00 -0.00000000000E+00 -0.52592260442E+02  0.52592260442E+02  0.00000000000E+00 0. -1.
          6    2    1    2  501    0  0.91503288326E+02  0.74670605161E+02  0.28883307995E+03  0.35528165061E+03  0.16985862397E+03 0.  0.
         24    2    3    3    0    0 -0.95763047561E+01  0.68470027534E+02  0.16117067296E+03  0.19226229146E+03  0.78796907358E+02 0.  0.
         -6    2    1    2    0  502 -0.91503288326E+02 -0.74670605161E+02  0.54492166437E+03  0.58365761460E+03  0.17253416974E+03 0.  0.
        -24    2    5    5    0    0  0.70360138164E+01 -0.17154821152E+02  0.33731111116E+03  0.34671396880E+03  0.78025618057E+02 0.  0.
          5    1    3    3  501    0  0.10107959308E+03  0.62005776276E+01  0.12766240699E+03  0.16301935915E+03  0.47000000000E+01 0. -1.
        -11    1    4    4    0    0 -0.12253412166E+02  0.40222618660E+02  0.15824713895E+03  0.16373809009E+03  0.00000000000E+00 0.  1.
         12    1    4    4    0    0  0.26771074098E+01  0.28247408874E+02  0.29235340124E+01  0.28524201362E+02  0.00000000000E+00 0. -1.
         -5    1    5    5    0  502 -0.98539302143E+02 -0.57515784010E+02  0.20761055322E+03  0.23694364580E+03  0.47000000000E+01 0.  1.
         11    1    6    6    0    0 -0.82196985317E+01  0.21545285127E+02  0.23700421586E+03  0.23812341567E+03  0.00000000000E+00 0. -1.
        -12    1    6    6    0    0  0.15255712348E+02 -0.38700106279E+02  0.10030689530E+03  0.10859055313E+03  0.00000000000E+00 0.  1.
</event>
<event>
12    1  0.8297444E-002  0.2053644E+03  0.7818608E-02  0.1145450E+00
         21   -1    0    0  503  502  0.00000000000E+00  0.00000000000E+00  0.11253830791E+03  0.11253830791E+03  0.00000000000E+00 0.  1.
         21   -1    0    0  501  503 -0.00000000000E+00 -0.00000000000E+00 -0.37337033792E+03  0.37337033792E+03  0.00000000000E+00 0.  1.
          6    2    1    2  501    0  0.94005012573E+02 -0.58952482439E+02 -0.13309660262E+03  0.24472281013E+03  0.17280685922E+03 0.  0.
         24    2    3    3    0    0  0.12164117297E+03 -0.81781663873E+02 -0.93515558405E+02  0.19111611327E+03  0.79343516314E+02 0.  0.
         -6    2    1    2    0  502 -0.94005012573E+02  0.58952482439E+02 -0.12773542740E+03  0.24118583570E+03  0.17187766102E+03 0.  0.
        -24    2    5    5    0    0 -0.64594226010E+02 -0.30196994459E+02 -0.47052812593E+02  0.11731332895E+03  0.80400108632E+02 0.  0.
          5    1    3    3  501    0 -0.27636160401E+02  0.22829181434E+02 -0.39581044211E+02  0.53606696853E+02  0.47000000000E+01 0. -1.
        -13    1    4    4    0    0  0.55077540275E+01 -0.42833162826E+02 -0.33824706416E+02  0.54855500692E+02  0.00000000000E+00 0.  1.
         14    1    4    4    0    0  0.11613341895E+03 -0.38948501047E+02 -0.59690851989E+02  0.13626061258E+03  0.00000000000E+00 0. -1.
         -5    1    5    5    0  502 -0.29410786563E+02  0.89149476898E+02 -0.80682614806E+02  0.12387250675E+03  0.47000000000E+01 0.  1.
         11    1    6    6    0    0 -0.14138651184E+02 -0.34204169062E+02  0.12585214044E+02  0.39092380985E+02  0.00000000000E+00 0. -1.
        -12    1    6    6    0    0 -0.50455574826E+02  0.40071746025E+01 -0.59638026637E+02  0.78220947964E+02  0.00000000000E+00 0.  1.
</event>
<event>
12    1  0.8297444E-002  0.2005326E+03  0.7818608E-02  0.1149938E+00
         21   -1    0    0  503  502  0.00000000000E+00  0.00000000000E+00  0.62709716881E+03  0.62709716881E+03  0.00000000000E+00 0.  1.
         21   -1    0    0  501  503 -0.00000000000E+00 -0.00000000000E+00 -0.12168133077E+03  0.12168133077E+03  0.00000000000E+00 0. -1.
          6    2    1    2  501    0  0.46852965775E+02 -0.86641457455E+02 -0.79486393344E+01  0.19763748813E+03  0.17115914610E+03 0.  0.
         24    2    3    3    0    0  0.36425455068E+02  0.56689326940E+01  0.34996557578E+02  0.95185933497E+02  0.80477651050E+02 0.  0.
         -6    2    1    2    0  502 -0.46852965775E+02  0.86641457455E+02  0.51336447737E+03  0.55114101145E+03  0.17467508501E+03 0.  0.
        -24    2    5    5    0    0  0.40321929811E+02  0.63663617536E+02  0.26236832718E+03  0.28440406058E+03  0.79809876247E+02 0.  0.
          5    1    3    3  501    0  0.10427510707E+02 -0.92310390148E+02 -0.42945196912E+02  0.10245155463E+03  0.47000000000E+01 0. -1.
        -11    1    4    4    0    0  0.54801926903E+02  0.14193924865E+02  0.22190976307E+01  0.56653712055E+02  0.00000000000E+00 0.  1.
         12    1    4    4    0    0 -0.18376471835E+02 -0.85249921713E+01  0.32777459947E+02  0.38532221441E+02  0.00000000000E+00 0. -1.
         -5    1    5    5    0  502 -0.87174895586E+02  0.22977839919E+02  0.25099615019E+03  0.26673695086E+03  0.47000000000E+01 0.  1.
         13    1    6    6    0    0  0.59001990494E+01  0.11288039589E+02 -0.18351357347E+01  0.12868562847E+02  0.00000000000E+00 0. -1.
        -14    1    6    6    0    0  0.34421730762E+02  0.52375577947E+02  0.26420346292E+03  0.27153549774E+03  0.00000000000E+00 0.  1.
</event>
<event>
12    1  0.8297444E-002  0.2700497E+03  0.7818608E-02  0.1101301E+00
         21   -1    0    0  503  502  0.00000000000E+00  0.00000000000E+00  0.42319926434E+03  0.42319926434E+03  0.00000000000E+00 0.  1.
         21   -1    0    0  501  503 -0.00000000000E+00 -0.00000000000E+00 -0.24642775389E+03  0.24642775389E+03  0.00000000000E+00 0. -1.
          6    2    1    2  501    0 -0.58479561919E+02  0.19980263234E+03 -0.95451730729E+02  0.28642255380E+03  0.17200550972E+03 0.  0.
         24    2    3    3    0    0 -0.97669831807E+02  0.94276702651E+02 -0.56366656997E+02  0.16716932710E+03  0.79629713005E+02 0.  0.
         -6    2    1    2    0  502  0.58479561919E+02 -0.19980263234E+03  0.27222324118E+03  0.38320446442E+03  0.17146200005E+03 0.  0.
        -24    2    5    5    0    0  0.39726066333E+02 -0.18064601489E+03  0.12790283735E+03  0.23634011016E+03  0.72707419355E+02 0.  0.
          5    1    3    3  501    0  0.39190269888E+02  0.10552592969E+03 -0.39085073732E+02  0.11925322670E+03  0.47000000000E+01 0. -1.
        -13    1    4    4    0    0 -0.14029929668E+02 -0.13743703388E+02 -0.14054035367E+02  0.24150449673E+02  0.00000000000E+00 0.  1.
         14    1    4    4    0    0 -0.83639902139E+02  0.10802040604E+03 -0.42312621630E+02  0.14301887743E+03  0.00000000000E+00 0. -1.
         -5    1    5    5    0  502  0.18753495586E+02 -0.19156617451E+02  0.14432040383E+03  0.14686435426E+03  0.47000000000E+01 0.  1.
         11    1    6    6    0    0  0.26239685785E+02 -0.22339952196E+02  0.46335649035E+02  0.57745882500E+02  0.00000000000E+00 0. -1.
        -12    1    6    6    0    0  0.13486380548E+02 -0.15830606269E+03  0.81567188312E+02  0.17859422766E+03  0.00000000000E+00 0.  1.
</event>
<event>
12    1  0.8297444E-002  0.3210642E+03  0.7818608E-02  0.1075274E+00
         21   -1    0    0  503  502  0.00000000000E+00  0.00000000000E+00  0.14396618198E+04  0.14396618198E+04  0.00000000000E+00 0. -1.
         21   -1    0    0  501  503 -0.00000000000E+00 -0.00000000000E+00 -0.10709650382E+03  0.10709650382E+03  0.00000000000E+00 0. -1.
          6    2    1    2  501    0 -0.43968689110E+02 -0.26679496221E+03  0.21899115140E+03  0.38782363222E+03  0.17128119521E+03 0.  0.
         24    2    3    3    0    0  0.27436460171E+02 -0.21656305043E+03  0.16145394847E+03  0.28315959816E+03  0.80372049834E+02 0.  0.
         -6    2    1    2    0  502  0.43968689110E+02  0.26679496221E+03  0.11135741646E+04  0.11589346914E+04  0.17311672773E+03 0.  0.
        -24    2    5    5    0    0  0.83527788844E+02  0.19164463981E+03  0.92844940431E+03  0.95520506617E+03  0.81816029022E+02 0.  0.
          5    1    3    3  501    0 -0.71405149281E+02 -0.50231911779E+02  0.57537202923E+02  0.10466403406E+03  0.47000000000E+01 0. -1.
        -13    1    4    4    0    0 -0.12350701418E+02  0.15136751665E-01  0.70945164057E+01  0.14243321862E+02  0.00000000000E+00 0.  1.
         14    1    4    4    0    0  0.39787161588E+02 -0.21657818718E+03  0.15435943207E+03  0.26891627630E+03  0.00000000000E+00 0. -1.
         -5    1    5    5    0  502 -0.39559099735E+02  0.75150322403E+02  0.18512476030E+03  0.20372962526E+03  0.47000000000E+01 0.  1.
         13    1    6    6    0    0  0.55189481019E+02  0.18683409482E+03  0.83553762506E+03  0.85794870516E+03  0.00000000000E+00 0. -1.
        -14    1    6    6    0    0  0.28338307826E+02  0.48105449887E+01  0.92911779247E+02  0.97256361008E+02  0.00000000000E+00 0.  1.
</event>
<event>
12    1  0.8297444E-002  0.2628074E+03  0.7818608E-02  0.1105589E+00
         21   -1    0    0  503  502  0.00000000000E+00  0.00000000000E+00  0.12386593219E+03  0.12386593219E+03  0.00000000000E+00 0. -1.
         21   -1    0    0  501  503 -0.00000000000E+00 -0.00000000000E+00 -0.56725586782E+03  0.56725586782E+03  0.00000000000E+00 0.  1.
          6    2    1    2  501    0  0.19461607079E+03  0.40737818328E+02 -0.27099265823E+03  0.37749804043E+03  0.17185099610E+03 0.  0.
         24    2    3    3    0    0  0.11521485391E+03 -0.43490140174E+02 -0.14265372662E+03  0.20460537545E+03  0.79670691546E+02 0.  0.
         -6    2    1    2    0  502 -0.19461607079E+03 -0.40737818328E+02 -0.17239727740E+03  0.31362375959E+03  0.17059911041E+03 0.  0.
        -24    2    5    5    0    0 -0.78514729271E+02 -0.84194749216E+02 -0.99885140983E+02  0.16992920064E+03  0.75137030367E+02 0.  0.
          5    1    3    3  501    0  0.79401216882E+02  0.84227958502E+02 -0.12833893162E+03  0.17289266498E+03  0.47000000000E+01 0. -1.
        -13    1    4    4    0    0  0.26114550228E+02 -0.23696133053E+02 -0.95645157277E+02  0.10193857251E+03  0.00000000000E+00 0.  1.
         14    1    4    4    0    0  0.89100303681E+02 -0.19794007121E+02 -0.47008569339E+02  0.10266680294E+03  0.00000000000E+00 0. -1.
         -5    1    5    5    0  502 -0.11610134152E+03  0.43456930888E+02 -0.72512136412E+02  0.14369455895E+03  0.47000000000E+01 0.  1.
         11    1    6    6    0    0 -0.74156949816E+02 -0.93515387008E+02 -0.10451775535E+03  0.15864533399E+03  0.00000000000E+00 0. -1.
        -12    1    6    6    0    0 -0.43577794553E+01  0.93206377917E+01  0.46326143694E+01  0.11283866648E+02  0.00000000000E+00 0.  1.
</event>
<event>
12    1  0.8297444E-002  0.2305896E+03  0.7818608E-02  0.1126561E+00
         21   -1    0    0  501  502  0.00000000000E+00  0.00000000000E+00  0.26096464707E+03  0.26096464707E+03  0.00000000000E+00 0.  1.
         21   -1    0    0  502  503 -0.00000000000E+00 -0.00000000000E+00 -0.49285402053E+03  0.49285402053E+03  0.00000000000E+00 0.  1.
         -6    2    1    2    0  503  0.54890220735E+02 -0.14392790881E+03 -0.40525673813E+03  0.46532638270E+03  0.16901905031E+03 0.  0.
        -24    2    3    3    0    0 -0.28514940947E+02 -0.89968713519E+02 -0.23311145046E+03  0.26651967803E+03  0.88228788814E+02 0.  0.
          6    2    1    2  501    0 -0.54890220735E+02  0.14392790881E+03  0.17336736468E+03  0.28849228490E+03  0.17159072248E+03 0.  0.
         24    2    5    5    0    0 -0.87085266631E+02  0.13352044414E+03  0.91963656044E+02  0.20021153909E+03  0.78840304942E+02 0.  0.
          5    1    5    5  501    0  0.32195045896E+02  0.10407464669E+02  0.81403708632E+02  0.88280745807E+02  0.47000000000E+01 0. -1.
        -11    1    6    6    0    0  0.11823882737E+02  0.38117082676E+02  0.14506719151E+02  0.42463644395E+02  0.00000000000E+00 0.  1.
         12    1    6    6    0    0 -0.98909149369E+02  0.95403361467E+02  0.77456936893E+02  0.15774789470E+03  0.00000000000E+00 0. -1.
         -5    1    3    3    0  503  0.83405161682E+02 -0.53959195294E+02 -0.17214528768E+03  0.19880670467E+03  0.47000000000E+01 0.  1.
         13    1    4    4    0    0  0.16374889147E+02 -0.75209952013E+02 -0.10670671379E+03  0.13157126071E+03  0.00000000000E+00 0. -1.
        -14    1    4    4    0    0 -0.44889830094E+02 -0.14758761506E+02 -0.12640473666E+03  0.13494841732E+03  0.00000000000E+00 0.  1.
</event>
<event>
12    1  0.8297444E-002  0.2417356E+03  0.7818608E-02  0.1118832E+00
         21   -1    0    0  503  502  0.00000000000E+00  0.00000000000E+00  0.15170111630E+03  0.15170111630E+03  0.00000000000E+00 0. -1.
         21   -1    0    0  501  503 -0.00000000000E+00 -0.00000000000E+00 -0.40134720667E+03  0.40134720667E+03  0.00000000000E+00 0.  1.
          6    2    1    2  501    0  0.10991396388E+03  0.12842657054E+03 -0.18304809991E+03  0.30230664657E+03  0.17119649004E+03 0.  0.
         24    2    3    3    0    0  0.13240818281E+03  0.11604109691E+03 -0.19425168715E+03  0.27389889746E+03  0.79305895240E+02 0.  0.
         -6    2    1    2    0  502 -0.10991396388E+03 -0.12842657054E+03 -0.66597990463E+02  0.25074167640E+03  0.17280518648E+03 0.  0.
        -24    2    5    5    0    0 -0.10531919214E+03 -0.15423737344E+03 -0.28634447014E+02  0.20436678982E+03  0.77875243983E+02 0.  0.
          5    1    3    3  501    0 -0.22494218930E+02  0.12385473631E+02  0.11203587242E+02  0.28407749109E+02  0.47000000000E+01 0. -1.
        -11    1    4    4    0    0  0.10030454306E+02  0.41144950048E+02 -0.79888527310E+02  0.90419542820E+02  0.00000000000E+00 0.  1.
         12    1    4    4    0    0  0.12237772851E+03  0.74896146858E+02 -0.11436315984E+03  0.18347935464E+03  0.00000000000E+00 0. -1.
         -5    1    5    5    0  502 -0.45947717424E+01  0.25810802907E+02 -0.37963543449E+02  0.46374886580E+02  0.47000000000E+01 0.  1.
         11    1    6    6    0    0 -0.48145615123E+02 -0.16072989383E+02 -0.20113491147E+02  0.54597561936E+02  0.00000000000E+00 0. -1.
        -12    1    6    6    0    0 -0.57173577019E+02 -0.13816438406E+03 -0.85209558678E+01  0.14976922788E+03  0.00000000000E+00 0.  1.
</event>
<event>
12    1  0.8297444E-002  0.2399681E+03  0.7818608E-02  0.1119816E+00
         21   -1    0    0  503  502  0.00000000000E+00  0.00000000000E+00  0.22465268992E+03  0.22465268992E+03  0.00000000000E+00 0. -1.
         21   -1    0    0  501  503 -0.00000000000E+00 -0.00000000000E+00 -0.56359662713E+03  0.56359662713E+03  0.00000000000E+00 0. -1.
          6    2    1    2  501    0 -0.86586119704E+02  0.14370191123E+03 -0.46048678880E+03  0.51925606846E+03  0.17155578263E+03 0.  0.
         24    2    3    3    0    0 -0.68333053995E+01  0.56264530717E+02 -0.10936351042E+03  0.14869507008E+03  0.83291385953E+02 0.  0.
         -6    2    1    2    0  502  0.86586119704E+02 -0.14370191123E+03  0.12154285159E+03  0.26899324859E+03  0.17157303867E+03 0.  0.
        -24    2    5    5    0    0  0.11131704741E+03 -0.62303105395E+02  0.10210691844E+03  0.18160200262E+03  0.79248360078E+02 0.  0.
          5    1    3    3  501    0 -0.79752814304E+02  0.87437380511E+02 -0.35112327838E+03  0.37056099838E+03  0.47000000000E+01 0. -1.
        -11    1    4    4    0    0  0.23015397929E+02 -0.11128068878E+02 -0.40069198407E+02  0.47529812957E+02  0.00000000000E+00 0.  1.
         12    1    4    4    0    0 -0.29848703329E+02  0.67392599595E+02 -0.69294312017E+02  0.10116525712E+03  0.00000000000E+00 0. -1.
         -5    1    5    5    0  502 -0.24730927702E+02 -0.81398805833E+02  0.19435933144E+02  0.87391245976E+02  0.47000000000E+01 0.  1.
         11    1    6    6    0    0  0.37662632308E+02 -0.46798560618E+01  0.75292260308E+02  0.84316661387E+02  0.00000000000E+00 0. -1.
        -12    1    6    6    0    0  0.73654415098E+02 -0.57623249333E+02  0.26814658135E+02  0.97285341229E+02  0.00000000000E+00 0.  1.
</event>
<event>
12    1  0.8297444E-002  0.2288412E+03  0.7818608E-02  0.1127873E+00
         21   -1    0    0  501  502  0.00000000000E+00  0.00000000000E+00  0.30752047666E+02  0.30752047666E+02  0.00000000000E+00 0.  1.
         21   -1    0    0  502  503 -0.00000000000E+00 -0.00000000000E+00 -0.17765099825E+04  0.17765099825E+04  0.00000000000E+00 0.  1.
         -6    2    1    2    0  503 -0.13100272020E+03  0.68577381204E+02 -0.67274030547E+03  0.71059679181E+03  0.17465311909E+03 0.  0.
        -24    2    3    3    0    0 -0.16473921273E+03  0.50281281848E+02 -0.54969717264E+03  0.58162159762E+03  0.80308690024E+02 0.  0.
          6    2    1    2  501    0  0.13100272020E+03 -0.68577381204E+02 -0.10730176293E+04  0.10966652383E+04  0.17159033243E+03 0.  0.
         24    2    5    5    0    0  0.80270279205E+02 -0.95584079809E+02 -0.94168062296E+03  0.95322660482E+03  0.79365801470E+02 0.  0.
          5    1    5    5  501    0  0.50732440998E+02  0.27006698605E+02 -0.13133700636E+03  0.14343863349E+03  0.47000000000E+01 0. -1.
        -11    1    6    6    0    0  0.94160811572E+02 -0.68734447591E+02 -0.69644113656E+03  0.70613096477E+03  0.00000000000E+00 0.  1.
         12    1    6    6    0    0 -0.13890532367E+02 -0.26849632218E+02 -0.24523948640E+03  0.24709564005E+03  0.00000000000E+00 0. -1.
         -5    1    3    3    0  503  0.33736492523E+02  0.18296099356E+02 -0.12304313283E+03  0.12897519419E+03  0.47000000000E+01 0.  1.
         11    1    4    4    0    0 -0.69530497061E+02  0.96704115454E+00 -0.32885435231E+03  0.33612588448E+03  0.00000000000E+00 0. -1.
        -12    1    4    4    0    0 -0.95208715664E+02  0.49314240694E+02 -0.22084282034E+03  0.24549571313E+03  0.00000000000E+00 0.  1.
</event>
<event>
12    1  0.8297444E-002  0.1775526E+03  0.7818608E-02  0.1170525E+00
         21   -1    0    0  501  502  0.00000000000E+00  0.00000000000E+00  0.30398737980E+03  0.30398737980E+03  0.00000000000E+00 0.  1.
         21   -1    0    0  502  503 -0.00000000000E+00 -0.00000000000E+00 -0.16814801056E+03  0.16814801056E+03  0.00000000000E+00 0.  1.
         -6    2    1    2    0  503  0.80460619998E+01 -0.35681338512E+02 -0.79267475012E+02  0.19321627723E+03  0.17236966137E+03 0.  0.
        -24    2    3    3    0    0  0.29050760946E+02 -0.68724013939E+02 -0.10003936815E+03  0.14864524043E+03  0.80750204444E+02 0.  0.
          6    2    1    2  501    0 -0.80460619998E+01  0.35681338512E+02  0.21510684425E+03  0.27891911313E+03  0.17374412276E+03 0.  0.
         24    2    5    5    0    0 -0.39976375939E+02  0.19121126306E+01  0.21385916570E+03  0.23219061789E+03  0.81086210152E+02 0.  0.
          5    1    5    5  501    0  0.31930313940E+02  0.33769225881E+02  0.12476785524E+01  0.46728495232E+02  0.47000000000E+01 0. -1.
        -11    1    6    6    0    0 -0.35992503801E+02  0.35630084498E+01  0.26636646229E+02  0.44918440327E+02  0.00000000000E+00 0.  1.
         12    1    6    6    0    0 -0.39838721384E+01 -0.16508958192E+01  0.18722251947E+03  0.18727217757E+03  0.00000000000E+00 0. -1.
         -5    1    3    3    0  503 -0.21004698946E+02  0.33042675427E+02  0.20771893143E+02  0.44571036806E+02  0.47000000000E+01 0.  1.
         13    1    4    4    0    0 -0.19306519414E+02 -0.22387645390E+01 -0.36255062262E+00  0.19439269572E+02  0.00000000000E+00 0. -1.
        -14    1    4    4    0    0  0.48357280360E+02 -0.66485249401E+02 -0.99676817532E+02  0.12920597086E+03  0.00000000000E+00 0.  1.
</event>
<event>
12    1  0.8297444E-002  0.2267581E+03  0.7818608E-02  0.1128958E+00
         21   -1    0    0  501  502  0.00000000000E+00  0.00000000000E+00  0.16901784148E+03  0.16901784148E+03  0.00000000000E+00 0.  1.
         21   -1    0    0  502  503 -0.00000000000E+00 -0.00000000000E+00 -0.30985603607E+03  0.30985603607E+03  0.00000000000E+00 0.  1.
         -6    2    1    2    0  503 -0.82240435129E+02  0.12290894578E+03 -0.10301871961E+03  0.24898358971E+03  0.17178438006E+03 0.  0.
        -24    2    3    3    0    0  0.99923569822E+01  0.10558814737E+03 -0.58438506487E+02  0.14498174646E+03  0.79724172640E+02 0.  0.
          6    2    1    2  501    0  0.82240435129E+02 -0.12290894578E+03 -0.37819474973E+02  0.22989028784E+03  0.17189861439E+03 0.  0.
         24    2    5    5    0    0  0.59860939106E+02 -0.98731697648E+02  0.39307873198E+02  0.14588969852E+03  0.80046330885E+02 0.  0.
          5    1    5    5  501    0  0.22379496023E+02 -0.24177248137E+02 -0.77127348171E+02  0.84000589317E+02  0.47000000000E+01 0. -1.
        -13    1    6    6    0    0  0.72382666024E+02 -0.84401333014E+02  0.10933523926E+02  0.11172455997E+03  0.00000000000E+00 0.  1.
         14    1    6    6    0    0 -0.12521726917E+02 -0.14330364633E+02  0.28374349272E+02  0.34165138550E+02  0.00000000000E+00 0. -1.
         -5    1    3    3    0  503 -0.92232792111E+02  0.17320798417E+02 -0.44580213123E+02  0.10400184326E+03  0.47000000000E+01 0.  1.
         13    1    4    4    0    0 -0.25435690784E+02  0.60401978930E+01 -0.51686126609E+01  0.26649069647E+02  0.00000000000E+00 0. -1.
        -14    1    4    4    0    0  0.35428047766E+02  0.99547949475E+02 -0.53269893826E+02  0.11833267681E+03  0.00000000000E+00 0.  1.
</event>
<event>
12    1  0.8297444E-002  0.1848287E+03  0.7818608E-02  0.1163662E+00
         21   -1    0    0  503  502  0.00000000000E+00  0.00000000000E+00  0.12310565031E+03  0.12310565031E+03  0.00000000000E+00 0. -1.
         21   -1    0    0  501  503 -0.00000000000E+00 -0.00000000000E+00 -0.52403208980E+03  0.52403208980E+03  0.00000000000E+00 0. -1.
          6    2    1    2  501    0 -0.45707360040E+02 -0.48761341488E+02 -0.42313925090E+03  0.46097901833E+03  0.17025862241E+03 0.  0.
         24    2    3    3    0    0 -0.93011882976E-01  0.19564886621E+02 -0.31322913044E+03  0.32367837454E+03  0.79198538820E+02 0.  0.
         -6    2    1    2    0  502  0.45707360040E+02  0.48761341488E+02  0.22212811403E+02  0.18615872178E+03  0.17232187765E+03 0.  0.
        -24    2    5    5    0    0  0.82133778457E+02  0.27296094359E+02 -0.30126841697E+02  0.11871118602E+03  0.75456509093E+02 0.  0.
          5    1    3    3  501    0 -0.45614348157E+02 -0.68326228110E+02 -0.10991012046E+03  0.13730064379E+03  0.47000000000E+01 0. -1.
        -11    1    4    4    0    0  0.22010749429E+02  0.80573054593E+00 -0.22424278919E+02  0.31431999255E+02  0.00000000000E+00 0.  1.
         12    1    4    4    0    0 -0.22103761312E+02  0.18759156075E+02 -0.29080485152E+03  0.29224637529E+03  0.00000000000E+00 0. -1.
         -5    1    5    5    0  502 -0.36426418417E+02  0.21465247130E+02  0.52339653100E+02  0.67447535756E+02  0.47000000000E+01 0.  1.
         13    1    6    6    0    0  0.69856426419E+02  0.11871723328E+02 -0.53020818953E+02  0.88498956882E+02  0.00000000000E+00 0. -1.
        -14    1    6    6    0    0  0.12277352038E+02  0.15424371031E+02  0.22893977256E+02  0.30212229136E+02  0.00000000000E+00 0.  1.
</event>
<event>
12    1  0.8297444E-002  0.2597329E+03  0.7818608E-02  0.1107396E+00
         21   -1    0    0  501  502  0.00000000000E+00  0.00000000000E+00  0.14546639810E+03  0.14546639810E+03  0.00000000000E+00 0.  1.
         21   -1    0    0  502  503 -0.00000000000E+00 -0.00000000000E+00 -0.76894249228E+03  0.76894249228E+03  0.00000000000E+00 0.  1.
         -6    2    1    2    0  503  0.18626144890E+03  0.55891172311E+02 -0.60006584939E+03  0.65362311142E+03  0.17125127064E+03 0.  0.
        -24    2    3    3    0    0  0.16813068722E+03  0.56606477413E+02 -0.33381041945E+03  0.38670874285E+03  0.81498677250E+02 0.  0.
          6    2    1    2  501    0 -0.18626144890E+03 -0.55891172311E+02 -0.23410244796E+02  0.26078577896E+03  0.17217442452E+03 0.  0.
         24    2    5    5    0    0 -0.55788457243E+02 -0.79664209007E+02  0.87837145794E+01  0.12423212707E+03  0.76796676980E+02 0.  0.
          5    1    5    5  501    0 -0.13047299166E+03  0.23773036696E+02 -0.32193959376E+02  0.13655365190E+03  0.47000000000E+01 0. -1.
        -11    1    6    6    0    0 -0.68582131555E+02 -0.44246731855E+02  0.21646698204E+02  0.84438507753E+02  0.00000000000E+00 0.  1.
         12    1    6    6    0    0  0.12793674312E+02 -0.35417477152E+02 -0.12862983625E+02  0.39793619312E+02  0.00000000000E+00 0. -1.
         -5    1    3    3    0  503  0.18130761688E+02 -0.71530510251E+00 -0.26625542994E+03  0.26691436858E+03  0.47000000000E+01 0.  1.
         13    1    4    4    0    0  0.35160583725E+02 -0.25692710047E+01 -0.13978728366E+03  0.14416432456E+03  0.00000000000E+00 0. -1.
        -14    1    4    4    0    0  0.13297010349E+03  0.59175748418E+02 -0.19402313578E+03  0.24254441829E+03  0.00000000000E+00 0.  1.
</event>
<event>
12    1  0.8297444E-002  0.2508667E+03  0.7818608E-02  0.1113251E+00
         21   -1    0    0  501  502  0.00000000000E+00  0.00000000000E+00  0.50774433728E+03  0.50774433728E+03  0.00000000000E+00 0. -1.
         21   -1    0    0  502  503 -0.00000000000E+00 -0.00000000000E+00 -0.63146983565E+03  0.63146983565E+03  0.00000000000E+00 0.  1.
         -6    2    1    2    0  503 -0.14077192617E+03 -0.11680821088E+03 -0.57321018288E+03  0.62446122505E+03  0.16709582429E+03 0.  0.
        -24    2    3    3    0    0 -0.73411842922E+02 -0.38656032797E+02 -0.44646718166E+03  0.46096498009E+03  0.79197102340E+02 0.  0.
          6    2    1    2  501    0  0.14077192617E+03  0.11680821088E+03  0.44948468451E+03  0.51475294789E+03  0.17167767013E+03 0.  0.
         24    2    5    5    0    0  0.64086495609E+02  0.11366799510E+03  0.15786976538E+03  0.21317067507E+03  0.59087916365E+02 0.  0.
          5    1    5    5  501    0  0.76685430560E+02  0.31402157810E+01  0.29161491913E+03  0.30158227281E+03  0.47000000000E+01 0. -1.
        -13    1    6    6    0    0  0.52171606138E+02  0.86231392300E+02  0.15247798703E+03  0.18277654672E+03  0.00000000000E+00 0.  1.
         14    1    6    6    0    0  0.11914889472E+02  0.27436602800E+02  0.53917783562E+01  0.30394128351E+02  0.00000000000E+00 0. -1.
         -5    1    3    3    0  503 -0.67360083248E+02 -0.78152178085E+02 -0.12674300123E+03  0.16349624495E+03  0.47000000000E+01 0.  1.
         11    1    4    4    0    0  0.11564700269E+02 -0.18843433761E+02 -0.45163029933E+02  0.50284357020E+02  0.00000000000E+00 0. -1.
        -12    1    4    4    0    0 -0.84976543191E+02 -0.19812599036E+02 -0.40130415173E+03  0.41068062307E+03  0.00000000000E+00 0.  1.
</event>
<event>
12    1  0.8297444E-002  0.2010009E+03  0.7818608E-02  0.1149338E+00
         21   -1    0    0  503  502  0.00000000000E+00  0.00000000000E+00  0.13919218132E+04  0.13919218132E+04  0.00000000000E+00 0. -1.
         21   -1    0    0  501  503 -0.00000000000E+00 -0.00000000000E+00 -0.32626176056E+02  0.32626176056E+02  0.00000000000E+00 0. -1.
          6    2    1    2  501    0  0.75986545314E+02  0.68627658027E+02  0.43646601740E+03  0.48052464189E+03  0.17296715469E+03 0.  0.
         24    2    3    3    0    0 -0.40689747909E+01 -0.48366462768E+01  0.27109271872E+03  0.28259458297E+03  0.79551784896E+02 0.  0.
         -6    2    1    2    0  502 -0.75986545314E+02 -0.68627658027E+02  0.92282961974E+03  0.94402334736E+03  0.17053405168E+03 0.  0.
        -24    2    5    5    0    0 -0.87922438057E+02 -0.10256425055E+03  0.81873594800E+03  0.83378841486E+03  0.81392798217E+02 0.  0.
          5    1    3    3  501    0  0.80055520105E+02  0.73464304304E+02  0.16537329868E+03  0.19793005892E+03  0.47000000000E+01 0. -1.
        -13    1    4    4    0    0  0.60483727373E+01  0.24699600724E+02  0.29306981128E+02  0.38801446256E+02  0.00000000000E+00 0.  1.
         14    1    4    4    0    0 -0.10117347528E+02 -0.29536247001E+02  0.24178573759E+03  0.24379313672E+03  0.00000000000E+00 0. -1.
         -5    1    5    5    0  502  0.11935892744E+02  0.33936592525E+02  0.10409367174E+03  0.11023493250E+03  0.47000000000E+01 0.  1.
         11    1    6    6    0    0 -0.65200302373E+02 -0.20592944195E+02  0.27131589593E+03  0.27979897099E+03  0.00000000000E+00 0. -1.
        -12    1    6    6    0    0 -0.22722135684E+02 -0.81971306357E+02  0.54742005207E+03  0.55398944387E+03  0.00000000000E+00 0.  1.
</event>
<event>
12    1  0.8297444E-002  0.2852945E+03  0.7818608E-02  0.1093171E+00
         21   -1    0    0  501  502  0.00000000000E+00  0.00000000000E+00  0.11730718929E+03  0.11730718929E+03  0.00000000000E+00 0. -1.
         21   -1    0    0  502  503 -0.00000000000E+00 -0.00000000000E+00 -0.71692339223E+03  0.71692339223E+03  0.00000000000E+00 0. -1.
         -6    2    1    2    0  503 -0.10598060356E+03 -0.19783756679E+03 -0.38529213659E+03  0.47941940050E+03  0.17612875941E+03 0.  0.
        -24    2    3    3    0    0 -0.12439892257E+03 -0.19822404119E+03 -0.28631502401E+03  0.37863278108E+03  0.81354947587E+02 0.  0.
          6    2    1    2  501    0  0.10598060356E+03  0.19783756679E+03 -0.21432406634E+03  0.35481118102E+03  0.17200167906E+03 0.  0.
         24    2    5    5    0    0  0.11622569416E+03  0.19427239441E+03 -0.13708826783E+03  0.27667584389E+03  0.80660735212E+02 0.  0.
          5    1    5    5  501    0 -0.10245090605E+02  0.35651723810E+01 -0.77235798516E+02  0.78135337127E+02  0.47000000000E+01 0. -1.
        -13    1    6    6    0    0 -0.33865374844E+01  0.61417575974E+02 -0.32694073990E+02  0.69659814447E+02  0.00000000000E+00 0.  1.
         14    1    6    6    0    0  0.11961223164E+03  0.13285481843E+03 -0.10439419384E+03  0.20701602945E+03  0.00000000000E+00 0. -1.
         -5    1    3    3    0  503  0.18418319010E+02  0.38647439998E+00 -0.98977112587E+02  0.10078661942E+03  0.47000000000E+01 0.  1.
         13    1    4    4    0    0 -0.37341110176E+02 -0.74743116084E+01 -0.44785425347E+02  0.58787398026E+02  0.00000000000E+00 0. -1.
        -14    1    4    4    0    0 -0.87057812390E+02 -0.19074972958E+03 -0.24152959866E+03  0.31984538305E+03  0.00000000000E+00 0.  1.
</event>
<event>
12    1  0.8297444E-002  0.4361695E+03  0.7818608E-02  0.1031996E+00
         21   -1    0    0  503  502  0.00000000000E+00  0.00000000000E+00  0.23142743939E+03  0.23142743939E+03  0.00000000000E+00 0. -1.
         21   -1    0    0  501  503 -0.00000000000E+00 -0.00000000000E+00 -0.82455056174E+03  0.82455056174E+03  0.00000000000E+00 0.  1.
          6    2    1    2  501    0  0.39631163247E+03  0.50746943529E+02 -0.33369514320E+03  0.54848737347E+03  0.17276512364E+03 0.  0.
         24    2    3    3    0    0  0.64785657205E+02  0.14538424511E+02 -0.65091814225E+02  0.12024635784E+03  0.76247590967E+02 0.  0.
         -6    2    1    2    0  502 -0.39631163247E+03 -0.50746943529E+02 -0.25942797915E+03  0.50749062767E+03  0.17494484415E+03 0.  0.
        -24    2    5    5    0    0 -0.30274332710E+03 -0.76302415385E+02 -0.13432932549E+03  0.34912436529E+03  0.79798960255E+02 0.  0.
          5    1    3    3  501    0  0.33152597527E+03  0.36208519018E+02 -0.26860332897E+03  0.42824101562E+03  0.47000000000E+01 0. -1.
        -13    1    4    4    0    0  0.18508752012E+02 -0.28844103285E+02 -0.38281888455E+02  0.51381506197E+02  0.00000000000E+00 0.  1.
         14    1    4    4    0    0  0.46276905194E+02  0.43382527796E+02 -0.26809925770E+02  0.68864851645E+02  0.00000000000E+00 0. -1.
         -5    1    5    5    0  502 -0.93568305377E+02  0.25555471856E+02 -0.12509865366E+03  0.15836626238E+03  0.47000000000E+01 0.  1.
         11    1    6    6    0    0 -0.26513732760E+03 -0.36951798875E+02 -0.10807211845E+03  0.28869156675E+03  0.00000000000E+00 0. -1.
        -12    1    6    6    0    0 -0.37605999499E+02 -0.39350616509E+02 -0.26257207044E+02  0.60432798543E+02  0.00000000000E+00 0.  1.
</event>
<event>
12    1  0.8297444E-002  0.1779011E+03  0.7818608E-02  0.1170044E+00
         21   -1    0    0  503  502  0.00000000000E+00  0.00000000000E+00  0.12175042389E+03  0.12175042389E+03  0.00000000000E+00 0. -1.
         21   -1    0    0  501  503 -0.00000000000E+00 -0.00000000000E+00 -0.25899924207E+03  0.25899924207E+03  0.00000000000E+00 0. -1.
          6    2    1    2  501    0  0.15731201473E+02 -0.38508930279E+02 -0.73755546901E+02  0.19185763167E+03  0.17215998874E+03 0.  0.
         24    2    3    3    0    0  0.12798004320E+02 -0.56122230686E+02  0.20082136137E+02  0.96220647432E+02  0.74442105751E+02 0.  0.
         -6    2    1    2    0  502 -0.15731201473E+02  0.38508930279E+02 -0.63493271277E+02  0.18889203429E+03  0.17296935194E+03 0.  0.
        -24    2    5    5    0    0 -0.64703885039E+02  0.41108394830E+02 -0.28323532961E+01  0.11074526263E+03  0.79874890326E+02 0.  0.
          5    1    3    3  501    0  0.29331971533E+01  0.17613300407E+02 -0.93837683039E+02  0.95636984241E+02  0.47000000000E+01 0. -1.
        -11    1    4    4    0    0  0.32867984783E+02  0.16832849487E+01  0.69739441255E+01  0.33641845499E+02  0.00000000000E+00 0.  1.
         12    1    4    4    0    0 -0.20069980463E+02 -0.57805515635E+02  0.13108192012E+02  0.62578801933E+02  0.00000000000E+00 0. -1.
         -5    1    5    5    0  502  0.48972683566E+02 -0.25994645505E+01 -0.60660917981E+02  0.78146771666E+02  0.47000000000E+01 0.  1.
         13    1    6    6    0    0 -0.15840827508E+01  0.47163782357E+02 -0.36396389360E+01  0.47330525625E+02  0.00000000000E+00 0. -1.
        -14    1    6    6    0    0 -0.63119802288E+02 -0.60553875272E+01  0.80728563991E+00  0.63414737002E+02  0.00000000000E+00 0.  1.
</event>
<event>
12    1  0.8297444E-002  0.1741958E+03  0.7818608E-02  0.1174552E+00
         21   -1    0    0  503  502  0.00000000000E+00  0.00000000000E+00  0.10508742659E+04  0.10508742659E+04  0.00000000000E+00 0. -1.
         21   -1    0    0  501  503 -0.00000000000E+00 -0.00000000000E+00 -0.36333945542E+02  0.36333945542E+02  0.00000000000E+00 0. -1.
          6    2    1    2  501    0  0.95762851756E+01 -0.28421677147E+02  0.24594116038E+03  0.29911631863E+03  0.16758287720E+03 0.  0.
         24    2    3    3    0    0 -0.93446691732E+01 -0.48494786504E+02  0.58767799670E+02  0.10986281353E+03  0.78594633137E+02 0.  0.
         -6    2    1    2    0  502 -0.95762851756E+01  0.28421677147E+02  0.76859915993E+03  0.78809189277E+03  0.17159448077E+03 0.  0.
        -24    2    5    5    0    0  0.14153717559E+02 -0.47722088800E+02  0.41420406010E+03  0.42480280278E+03  0.80091774637E+02 0.  0.
          5    1    3    3  501    0  0.18920954349E+02  0.20073109357E+02  0.18717336071E+03  0.18925350510E+03  0.47000000000E+01 0. -1.
        -13    1    4    4    0    0 -0.23190412325E+02  0.14176426336E+02  0.89527670863E+01  0.28616749046E+02  0.00000000000E+00 0.  1.
         14    1    4    4    0    0  0.13845743152E+02 -0.62671212840E+02  0.49815032584E+02  0.81246064481E+02  0.00000000000E+00 0. -1.
         -5    1    5    5    0  502 -0.23730002734E+02  0.76143765947E+02  0.35439509983E+03  0.36328908999E+03  0.47000000000E+01 0.  1.
         11    1    6    6    0    0 -0.24926942845E+02 -0.47228365950E+00  0.21323613442E+03  0.21468866890E+03  0.00000000000E+00 0. -1.
        -12    1    6    6    0    0  0.39080660404E+02 -0.47249805140E+02  0.20096792568E+03  0.21011413388E+03  0.00000000000E+00 0.  1.
</event>
<event>
12    1  0.8297444E-002  0.1960909E+03  0.7818608E-02  0.1153100E+00
         21   -1    0    0  503  502  0.00000000000E+00  0.00000000000E+00  0.13631536755E+03  0.13631536755E+03  0.00000000000E+00 0. -1.
         21   -1    0    0  501  503 -0.00000000000E+00 -0.00000000000E+00 -0.31998843666E+03  0.31998843666E+03  0.00000000000E+00 0.  1.
          6    2    1    2  501    0  0.75449754226E+01 -0.93635911245E+02 -0.17048443117E+03  0.25976985341E+03  0.17201983880E+03 0.  0.
         24    2    3    3    0    0 -0.17543989640E+02 -0.10122858653E+03 -0.18781809439E+03  0.22799485118E+03  0.78428293867E+02 0.  0.
         -6    2    1    2    0  502 -0.75449754226E+01  0.93635911245E+02 -0.13188637944E+02  0.19653395081E+03  0.17212507987E+03 0.  0.
        -24    2    5    5    0    0 -0.12733576106E+02  0.10643700380E+03 -0.62703336297E+02  0.14491433341E+03  0.74682500670E+02 0.  0.
          5    1    3    3  501    0  0.25088965062E+02  0.75926752881E+01  0.17333663226E+02  0.31775002231E+02  0.47000000000E+01 0. -1.
        -11    1    4    4    0    0  0.16679638102E+02  0.38805188577E+01 -0.39175671610E+02  0.42755140041E+02  0.00000000000E+00 0.  1.
         12    1    4    4    0    0 -0.34223627742E+02 -0.10510910539E+03 -0.14864242278E+03  0.18523971114E+03  0.00000000000E+00 0. -1.
         -5    1    5    5    0  502  0.51886006832E+01 -0.12801092553E+02  0.49514698353E+02  0.51619617400E+02  0.47000000000E+01 0.  1.
         13    1    6    6    0    0 -0.44060860762E+02  0.55745113313E+02 -0.34060065864E+02  0.78796987228E+02  0.00000000000E+00 0. -1.
        -14    1    6    6    0    0  0.31327284657E+02  0.50691890484E+02 -0.28643270432E+02  0.66117346180E+02  0.00000000000E+00 0.  1.
</event>
<event>
12    1  0.8297444E-002  0.2079433E+03  0.7818608E-02  0.1143483E+00
         21   -1    0    0  501  502  0.00000000000E+00  0.00000000000E+00  0.17846784365E+03  0.17846784365E+03  0.00000000000E+00 0. -1.
         21   -1    0    0  502  503 -0.00000000000E+00 -0.00000000000E+00 -0.10748505318E+04  0.10748505318E+04  0.00000000000E+00 0. -1.
         -6    2    1    2    0  503 -0.82341321253E+02 -0.75180819568E+02 -0.99991413680E+03  0.10210272392E+04  0.17388528820E+03 0.  0.
        -24    2    3    3    0    0 -0.96501630718E+02  0.35134257583E+01 -0.65834973245E+03  0.67019732184E+03  0.80094763240E+02 0.  0.
          6    2    1    2  501    0  0.82341321253E+02  0.75180819568E+02  0.10353144870E+03  0.23229113617E+03  0.17552254059E+03 0.  0.
         24    2    5    5    0    0  0.16703903271E+02 -0.22516048558E+02  0.73912317231E+02  0.11083195937E+03  0.77683329943E+02 0.  0.
          5    1    5    5  501    0  0.65637417982E+02  0.97696868125E+02  0.29619131467E+02  0.12145917680E+03  0.47000000000E+01 0. -1.
        -11    1    6    6    0    0 -0.15232476750E+02 -0.15350309789E+02 -0.76569324926E+01  0.22940988944E+02  0.00000000000E+00 0.  1.
         12    1    6    6    0    0  0.31936380021E+02 -0.71657387690E+01  0.81569249724E+02  0.87890970421E+02  0.00000000000E+00 0. -1.
         -5    1    3    3    0  503  0.14160309465E+02 -0.78694245326E+02 -0.34156440435E+03  0.35082991739E+03  0.47000000000E+01 0.  1.
         13    1    4    4    0    0 -0.77225925912E+02 -0.21240885988E+02 -0.58446282808E+03  0.58992526330E+03  0.00000000000E+00 0. -1.
        -14    1    4    4    0    0 -0.19275704806E+02  0.24754311747E+02 -0.73886904372E+02  0.80272058548E+02  0.00000000000E+00 0.  1.
</event>
<event>
12    1  0.8297444E-002  0.1784669E+03  0.7818608E-02  0.1169490E+00
         21   -1    0    0  501  502  0.00000000000E+00  0.00000000000E+00  0.43774960262E+02  0.43774960262E+02  0.00000000000E+00 0. -1.
         21   -1    0    0  502  503 -0.00000000000E+00 -0.00000000000E+00 -0.10135181924E+04  0.10135181924E+04  0.00000000000E+00 0. -1.
         -6    2    1    2    0  503  0.31536307570E+02 -0.30926730455E+02 -0.20327502953E+03  0.27050171546E+03  0.17291454272E+03 0.  0.
        -24    2    3    3    0    0  0.15832084150E+02  0.32817755135E+02 -0.44377063781E+02  0.98511495981E+02  0.80047055599E+02 0.  0.
          6    2    1    2  501    0 -0.31536307570E+02  0.30926730455E+02 -0.76646820261E+03  0.78679143721E+03  0.17209374973E+03 0.  0.
         24    2    5    5    0    0 -0.31542191765E+02  0.75485678474E+02 -0.68083428793E+03  0.69014384424E+03  0.77911492105E+02 0.  0.
          5    1    5    5  501    0  0.58841959655E-02 -0.44558948019E+02 -0.85633914679E+02  0.96647592968E+02  0.47000000000E+01 0. -1.
        -11    1    6    6    0    0  0.18075874048E+02  0.57367305500E+02 -0.36539494276E+03  0.37031231300E+03  0.00000000000E+00 0.  1.
         12    1    6    6    0    0 -0.49618065813E+02  0.18118372974E+02 -0.31543934517E+03  0.31983153124E+03  0.00000000000E+00 0. -1.
         -5    1    3    3    0  503  0.15704223419E+02 -0.63744485591E+02 -0.15889796575E+03  0.17199021948E+03  0.47000000000E+01 0.  1.
         13    1    4    4    0    0  0.47746090314E+02  0.11426491811E+02 -0.29728668382E+02  0.57393793908E+02  0.00000000000E+00 0. -1.
        -14    1    4    4    0    0 -0.31914006164E+02  0.21391263324E+02 -0.14648395399E+02  0.41117702073E+02  0.00000000000E+00 0.  1.
</event>
<event>
12    1  0.8297444E-002  0.1901363E+03  0.7818608E-02  0.1158362E+00
         21   -1    0    0  503  502  0.00000000000E+00  0.00000000000E+00  0.10738608758E+04  0.10738608758E+04  0.00000000000E+00 0. -1.
         21   -1    0    0  501  503 -0.00000000000E+00 -0.00000000000E+00 -0.43833483228E+02  0.43833483228E+02  0.00000000000E+00 0. -1.
          6    2    1    2  501    0  0.26015764295E+02 -0.78979703649E+02  0.24550556763E+03  0.31046062513E+03  0.17087481511E+03 0.  0.
         24    2    3    3    0    0  0.28383525756E+02  0.13623834858E+02  0.33316038760E+02  0.78884486894E+02  0.64199458124E+02 0.  0.
         -6    2    1    2    0  502 -0.26015764295E+02  0.78979703649E+02  0.78452182495E+03  0.80723373391E+03  0.17098887026E+03 0.  0.
        -24    2    5    5    0    0 -0.74004177120E+02  0.86195820367E+02  0.51415130731E+03  0.53250247083E+03  0.79378693261E+02 0.  0.
          5    1    3    3  501    0 -0.23677614607E+01 -0.92603538507E+02  0.21218952887E+03  0.23157613824E+03  0.47000000000E+01 0. -1.
        -11    1    4    4    0    0 -0.17869352117E+02  0.11142901499E+01  0.24211727908E+02  0.30112508297E+02  0.00000000000E+00 0.  1.
         12    1    4    4    0    0  0.46252877872E+02  0.12509544708E+02  0.91043108512E+01  0.48771978598E+02  0.00000000000E+00 0. -1.
         -5    1    5    5    0  502  0.47988412825E+02 -0.72161167176E+01  0.27037051764E+03  0.27473126308E+03  0.47000000000E+01 0.  1.
         13    1    6    6    0    0  0.90423146602E+01 -0.71852530540E+01  0.76214950336E+02  0.77085082672E+02  0.00000000000E+00 0. -1.
        -14    1    6    6    0    0 -0.83046491780E+02  0.93381073421E+02  0.43793635698E+03  0.45541738816E+03  0.00000000000E+00 0.  1.
</event>
<event>
12    1  0.8297444E-002  0.1853326E+03  0.7818608E-02  0.1162923E+00
         21   -1    0    0  503  502  0.00000000000E+00  0.00000000000E+00  0.82348483284E+02  0.82348483284E+02  0.00000000000E+00 0. -1.
         21   -1    0    0  501  503 -0.00000000000E+00 -0.00000000000E+00 -0.62097924327E+03  0.62097924327E+03  0.00000000000E+00 0. -1.
          6    2    1    2  501    0 -0.25748958303E+02  0.62816074695E+02 -0.47130101101E+03  0.50614384581E+03  0.17160443343E+03 0.  0.
         24    2    3    3    0    0 -0.56787984768E+02 -0.58704619393E+01 -0.17622518537E+03  0.20155708582E+03  0.79439318663E+02 0.  0.
         -6    2    1    2    0  502  0.25748958303E+02 -0.62816074695E+02 -0.67329748972E+02  0.19718388074E+03  0.17245091950E+03 0.  0.
        -24    2    5    5    0    0 -0.18465338615E+02  0.19677704356E+02 -0.58947043804E+02  0.10309622279E+03  0.80161689107E+02 0.  0.
          5    1    3    3  501    0  0.31039026465E+02  0.68686536635E+02 -0.29507582565E+03  0.30458675999E+03  0.47000000000E+01 0. -1.
        -13    1    4    4    0    0  0.11770556608E+02  0.15110504163E+02 -0.12637184454E+02  0.22947151671E+02  0.00000000000E+00 0.  1.
         14    1    4    4    0    0 -0.68558541376E+02 -0.20980966102E+02 -0.16358800091E+03  0.17860993415E+03  0.00000000000E+00 0. -1.
         -5    1    5    5    0  502  0.44214296918E+02 -0.82493779051E+02 -0.83827051676E+01  0.94087657958E+02  0.47000000000E+01 0.  1.
         13    1    6    6    0    0  0.18607791329E+02 -0.26785283916E+00  0.10882782462E+02  0.21558214152E+02  0.00000000000E+00 0. -1.
        -14    1    6    6    0    0 -0.37073129945E+02  0.19945557195E+02 -0.69829826266E+02  0.81538008634E+02  0.00000000000E+00 0.  1.
</event>
<event>
12    1  0.8297444E-002  0.2206748E+03  0.7818608E-02  0.1133757E+00
         21   -1    0    0  503  502  0.00000000000E+00  0.00000000000E+00  0.10847854518E+04  0.10847854518E+04  0.00000000000E+00 0.  1.
         21   -1    0    0  501  503 -0.00000000000E+00 -0.00000000000E+00 -0.77487692781E+02  0.77487692781E+02  0.00000000000E+00 0. -1.
          6    2    1    2  501    0 -0.86250788001E+02  0.10837582560E+03  0.12570129672E+03  0.25396494654E+03  0.17179307340E+03 0.  0.
         24    2    3    3    0    0  0.17813377888E+02  0.67161338498E+02  0.82496575309E+02  0.13389528959E+03  0.79336636019E+02 0.  0.
         -6    2    1    2    0  502  0.86250788001E+02 -0.10837582560E+03  0.88159646234E+03  0.90830819809E+03  0.16919498305E+03 0.  0.
        -24    2    5    5    0    0  0.91917236682E+02 -0.28509312124E+02  0.68292203348E+03  0.69405510640E+03  0.77900113115E+02 0.  0.
          5    1    3    3  501    0 -0.10406416589E+03  0.41214487099E+02  0.43204721412E+02  0.12006965696E+03  0.47000000000E+01 0. -1.
        -13    1    4    4    0    0  0.20444105302E+02 -0.11060917128E+02  0.36021380893E+02  0.42870096929E+02  0.00000000000E+00 0.  1.
         14    1    4    4    0    0 -0.26307274138E+01  0.78222255627E+02  0.46475194417E+02  0.91025192656E+02  0.00000000000E+00 0. -1.
         -5    1    5    5    0  502 -0.56664486812E+01 -0.79866513474E+02  0.19867442886E+03  0.21425309169E+03  0.47000000000E+01 0.  1.
         13    1    6    6    0    0  0.21615037639E+02  0.79693120872E+01  0.39118586975E+02  0.45398057604E+02  0.00000000000E+00 0. -1.
        -14    1    6    6    0    0  0.70302199043E+02 -0.36478624211E+02  0.64380344651E+03  0.64865704879E+03  0.00000000000E+00 0.  1.
</event>
<event>
12    1  0.8297444E-002  0.3322061E+03  0.7818608E-02  0.1070478E+00
         21   -1    0    0  501  502  0.00000000000E+00  0.00000000000E+00  0.67847493556E+03  0.67847493556E+03  0.00000000000E+00 0.  1.
         21   -1    0    0  502  503 -0.00000000000E+00 -0.00000000000E+00 -0.72876615889E+03  0.72876615889E+03  0.00000000000E+00 0. -1.
         -6    2    1    2    0  503 -0.94436120803E+02 -0.26826040492E+03 -0.64607383380E+03  0.72647936619E+03  0.17169462724E+03 0.  0.
        -24    2    3    3    0    0 -0.12619905858E+03 -0.25641965118E+03 -0.55818589457E+03  0.63216357998E+03  0.79887790457E+02 0.  0.
          6    2    1    2  501    0  0.94436120803E+02  0.26826040492E+03  0.59578261048E+03  0.68076172826E+03  0.16612581363E+03 0.  0.
         24    2    5    5    0    0 -0.10607244745E+02  0.12397593508E+03  0.30685318668E+03  0.34112306907E+03  0.81997097226E+02 0.  0.
          5    1    5    5  501    0  0.10504336555E+03  0.14428446983E+03  0.28892942380E+03  0.33963865919E+03  0.47000000000E+01 0. -1.
        -11    1    6    6    0    0  0.19263660384E+02  0.74641573328E+02  0.24368526321E+03  0.25558748128E+03  0.00000000000E+00 0.  1.
         12    1    6    6    0    0 -0.29870905129E+02  0.49334361756E+02  0.63167923472E+02  0.85535587791E+02  0.00000000000E+00 0. -1.
         -5    1    3    3    0  503  0.31762937778E+02 -0.11840753733E+02 -0.87887939234E+02  0.94315786209E+02  0.47000000000E+01 0.  1.
         11    1    4    4    0    0 -0.11682117454E+03 -0.17466285837E+03 -0.44609845130E+03  0.49311066625E+03  0.00000000000E+00 0. -1.
        -12    1    4    4    0    0 -0.93778840388E+01 -0.81756792814E+02 -0.11208744327E+03  0.13905291374E+03  0.00000000000E+00 0.  1.
</event>
<event>
12    1  0.8297444E-002  0.1811840E+03  0.7818608E-02  0.1166893E+00
         21   -1    0    0  501  502  0.00000000000E+00  0.00000000000E+00  0.19095656518E+03  0.19095656518E+03  0.00000000000E+00 0. -1.
         21   -1    0    0  502  503 -0.00000000000E+00 -0.00000000000E+00 -0.17314236718E+03  0.17314236718E+03  0.00000000000E+00 0. -1.
         -6    2    1    2    0  503  0.23018383740E+02  0.51881367932E+02  0.29162556302E+02  0.18351591366E+03  0.17206427156E+03 0.  0.
        -24    2    3    3    0    0 -0.49351448814E+02  0.30307615900E+02  0.41058907362E+02  0.10692327296E+03  0.79953957656E+02 0.  0.
          6    2    1    2  501    0 -0.23018383740E+02 -0.51881367932E+02 -0.11348358307E+02  0.18058301871E+03  0.17105531000E+03 0.  0.
         24    2    5    5    0    0  0.16388184602E+02  0.14985385329E+02  0.35644735669E+02  0.89728843229E+02  0.79294285786E+02 0.  0.
          5    1    5    5  501    0 -0.39406568343E+02 -0.66866753261E+02 -0.46993093976E+02  0.90854175477E+02  0.47000000000E+01 0. -1.
        -13    1    6    6    0    0 -0.18646842888E+02  0.36623166184E+02  0.19653155742E+02  0.45554446343E+02  0.00000000000E+00 0.  1.
         14    1    6    6    0    0  0.35035027491E+02 -0.21637780855E+02  0.15991579928E+02  0.44174396885E+02  0.00000000000E+00 0. -1.
         -5    1    3    3    0  503  0.72369832554E+02  0.21573752032E+02 -0.11896351059E+02  0.76592640699E+02  0.47000000000E+01 0.  1.
         13    1    4    4    0    0  0.21712590405E+02  0.65403414205E+00  0.91594846592E+01  0.23574573209E+02  0.00000000000E+00 0. -1.
        -14    1    4    4    0    0 -0.71064039220E+02  0.29653581758E+02  0.31899422703E+02  0.83348699750E+02  0.00000000000E+00 0.  1.
</event>
<event>
12    1  0.8297444E-002  0.1930732E+03  0.7818608E-02  0.1156706E+00
         21   -1    0    0  503  502  0.00000000000E+00  0.00000000000E+00  0.91005925527E+03  0.91005925527E+03  0.00000000000E+00 0.  1.
         21   -1    0    0  501  503 -0.00000000000E+00 -0.00000000000E+00 -0.41475653292E+02  0.41475653292E+02  0.00000000000E+00 0.  1.
          6    2    1    2  501    0  0.50502962563E+02  0.69971166148E+02  0.51827825784E+03  0.55154601722E+03  0.16776216272E+03 0.  0.
         24    2    3    3    0    0  0.11897953192E+02  0.80050380015E+02  0.48894163452E+03  0.50180001468E+03  0.78674698188E+02 0.  0.
         -6    2    1    2    0  502 -0.50502962563E+02 -0.69971166148E+02  0.35030534414E+03  0.39998889134E+03  0.17271585262E+03 0.  0.
        -24    2    5    5    0    0 -0.91972896896E+01  0.36380016335E+02  0.18466292290E+03  0.19880182829E+03  0.63353580096E+02 0.  0.
          5    1    3    3  501    0  0.38605009371E+02 -0.10079213867E+02  0.29336623322E+02  0.49746002539E+02  0.47000000000E+01 0. -1.
        -13    1    4    4    0    0  0.18097981816E+02  0.18891217055E+01  0.24260099559E+03  0.24328244653E+03  0.00000000000E+00 0.  1.
         14    1    4    4    0    0 -0.62000286241E+01  0.78161258309E+02  0.24634063893E+03  0.25851756815E+03  0.00000000000E+00 0. -1.
         -5    1    5    5    0  502 -0.41305672874E+02 -0.10635118248E+03  0.16564242124E+03  0.20118706306E+03  0.47000000000E+01 0.  1.
         13    1    6    6    0    0  0.10366802733E+02  0.11369028300E+02  0.15364172835E+03  0.15441018779E+03  0.00000000000E+00 0. -1.
        -14    1    6    6    0    0 -0.19564092423E+02  0.25010988035E+02  0.31021194550E+02  0.44391640498E+02  0.00000000000E+00 0.  1.
</event>
<event>
12    1  0.8297444E-002  0.1778156E+03  0.7818608E-02  0.1172162E+00
         21   -1    0    0  501  502  0.00000000000E+00  0.00000000000E+00  0.27361357950E+03  0.27361357950E+03  0.00000000000E+00 0.  1.
         21   -1    0    0  502  503 -0.00000000000E+00 -0.00000000000E+00 -0.23182195605E+03  0.23182195605E+03  0.00000000000E+00 0.  1.
         -6    2    1    2    0  503  0.17432955079E+02  0.40569375681E+02 -0.16209846671E+03  0.24061233693E+03  0.17224575933E+03 0.  0.
        -24    2    3    3    0    0  0.30975468635E+02 -0.41381219249E+02 -0.80960975914E+02  0.12440268976E+03  0.79053555489E+02 0.  0.
          6    2    1    2  501    0 -0.17432955079E+02 -0.40569375681E+02  0.20389009016E+03  0.26482319862E+03  0.16312686933E+03 0.  0.
         24    2    5    5    0    0 -0.47272196934E+02  0.23535053564E+02  0.94816387892E+02  0.13475044694E+03  0.79868493091E+02 0.  0.
          5    1    5    5  501    0  0.29839241855E+02 -0.64104429245E+02  0.10907370227E+03  0.13007275168E+03  0.47000000000E+01 0. -1.
        -11    1    6    6    0    0 -0.10247389206E+02 -0.58118531065E+01  0.85859602826E+02  0.86664052637E+02  0.00000000000E+00 0.  1.
         12    1    6    6    0    0 -0.37024807728E+02  0.29346906670E+02  0.89567850656E+01  0.48086394303E+02  0.00000000000E+00 0. -1.
         -5    1    3    3    0  503 -0.13542513556E+02  0.81950594930E+02 -0.81137490794E+02  0.11620964717E+03  0.47000000000E+01 0.  1.
         11    1    4    4    0    0 -0.21801341938E+02 -0.35062108614E+02 -0.36367647918E+02  0.55020503322E+02  0.00000000000E+00 0. -1.
        -12    1    4    4    0    0  0.52776810573E+02 -0.63191106352E+01 -0.44593327995E+02  0.69382186439E+02  0.00000000000E+00 0.  1.
</event>
<event>
12    1  0.8297444E-002  0.2384261E+03  0.7818608E-02  0.1123047E+00
         21   -1    0    0  503  502  0.00000000000E+00  0.00000000000E+00  0.53875500316E+02  0.53875500316E+02  0.00000000000E+00 0. -1.
         21   -1    0    0  501  503 -0.00000000000E+00 -0.00000000000E+00 -0.13760567049E+04  0.13760567049E+04  0.00000000000E+00 0. -1.
          6    2    1    2  501    0  0.52088415811E+02 -0.13494993876E+03 -0.10481301637E+04  0.10749064363E+04  0.18953183817E+03 0.  0.
         24    2    3    3    0    0  0.60035143056E+01 -0.12781421341E+03 -0.98342776511E+03  0.99501133565E+03  0.80900392709E+02 0.  0.
         -6    2    1    2    0  502 -0.52088415811E+02  0.13494993876E+03 -0.27405104094E+03  0.35502576898E+03  0.17324732196E+03 0.  0.
        -24    2    5    5    0    0  0.37832298476E+02  0.64375784684E+02 -0.14360462008E+03  0.18151840661E+03  0.82165202908E+02 0.  0.
          5    1    3    3  501    0  0.46084901506E+02 -0.71357253559E+01 -0.64702398582E+02  0.79895100635E+02  0.47000000000E+01 0. -1.
        -11    1    4    4    0    0  0.46131604349E+01  0.11095334375E+02 -0.59806672572E+02  0.61001850613E+02  0.00000000000E+00 0.  1.
         12    1    4    4    0    0  0.13903538708E+01 -0.13890954778E+03 -0.92362109254E+03  0.93400948503E+03  0.00000000000E+00 0. -1.
         -5    1    5    5    0  502 -0.89920714287E+02  0.70574154079E+02 -0.13044642086E+03  0.17350736237E+03  0.47000000000E+01 0.  1.
         13    1    6    6    0    0  0.12400044440E+02  0.80117566752E+02 -0.10714442558E+03  0.13435964252E+03  0.00000000000E+00 0. -1.
        -14    1    6    6    0    0  0.25432254036E+02 -0.15741782068E+02 -0.36460194501E+02  0.47158764096E+02  0.00000000000E+00 0.  1.
</event>
<event>
12    1  0.8297444E-002  0.1893799E+03  0.7818608E-02  0.1159081E+00
         21   -1    0    0  501  502  0.00000000000E+00  0.00000000000E+00  0.12592055991E+04  0.12592055991E+04  0.00000000000E+00 0.  1.
         21   -1    0    0  502  503 -0.00000000000E+00 -0.00000000000E+00 -0.90207402250E+02  0.90207402250E+02  0.00000000000E+00 0.  1.
         -6    2    1    2    0  503  0.76112351891E+02  0.19560242863E+02  0.26079320209E+02  0.19091039457E+03  0.17202021568E+03 0.  0.
        -24    2    3    3    0    0  0.29711583480E+02  0.73588992244E+02 -0.61772440222E+01  0.11258598583E+03  0.79619896316E+02 0.  0.
          6    2    1    2  501    0 -0.76112351891E+02 -0.19560242863E+02  0.11429188767E+04  0.11585026068E+04  0.17230507282E+03 0.  0.
         24    2    5    5    0    0 -0.81867394209E+02  0.44857578837E+02  0.82878670612E+03  0.83774742471E+03  0.78859817151E+02 0.  0.
          5    1    5    5  501    0  0.57550423184E+01 -0.64417821700E+02  0.31413217054E+03  0.32075518208E+03  0.47000000000E+01 0. -1.
        -11    1    6    6    0    0 -0.22850291539E+02  0.10054441296E+02  0.55349843486E+03  0.55406113833E+03  0.00000000000E+00 0.  1.
         12    1    6    6    0    0 -0.59017102670E+02  0.34803137542E+02  0.27528827125E+03  0.28368628638E+03  0.00000000000E+00 0. -1.
         -5    1    3    3    0  503  0.46400768411E+02 -0.54028749381E+02  0.32256564232E+02  0.78324408742E+02  0.47000000000E+01 0.  1.
         11    1    4    4    0    0  0.23739250546E+01  0.46791138874E+02  0.33389266504E+02  0.57531637513E+02  0.00000000000E+00 0. -1.
        -12    1    4    4    0    0  0.27337658425E+02  0.26797853370E+02 -0.39566510526E+02  0.55054348317E+02  0.00000000000E+00 0.  1.
</event>
<event>
12    1  0.8297444E-002  0.1759162E+03  0.7818608E-02  0.1173759E+00
         21   -1    0    0  503  502  0.00000000000E+00  0.00000000000E+00  0.15242381837E+04  0.15242381837E+04  0.00000000000E+00 0. -1.
         21   -1    0    0  501  503 -0.00000000000E+00 -0.00000000000E+00 -0.38864630385E+02  0.38864630385E+02  0.00000000000E+00 0. -1.
          6    2    1    2  501    0 -0.28273030270E+02 -0.20900681765E+02  0.19834710098E+03  0.26511902549E+03  0.17236682533E+03 0.  0.
         24    2    3    3    0    0 -0.59306695936E+01 -0.90986009770E+01  0.21457029905E+02  0.86371557159E+02  0.82955918246E+02 0.  0.
         -6    2    1    2    0  502  0.28273030270E+02  0.20900681765E+02  0.12870264523E+04  0.12979837886E+04  0.16458621964E+03 0.  0.
        -24    2    5    5    0    0 -0.23787873143E+02  0.60160083335E+02  0.73686490445E+03  0.74395178857E+03  0.79430962294E+02 0.  0.
          5    1    3    3  501    0 -0.22342360676E+02 -0.11802080788E+02  0.17689007107E+03  0.17874746834E+03  0.47000000000E+01 0. -1.
        -11    1    4    4    0    0  0.35558119727E+02 -0.37240369305E+01  0.26119242887E+02  0.44277118002E+02  0.00000000000E+00 0.  1.
         12    1    4    4    0    0 -0.41488789321E+02 -0.53745640465E+01 -0.46622129815E+01  0.42094439156E+02  0.00000000000E+00 0. -1.
         -5    1    5    5    0  502  0.52060903413E+02 -0.39259401570E+02  0.55016154788E+03  0.55403200001E+03  0.47000000000E+01 0.  1.
         13    1    6    6    0    0 -0.32591311685E+01  0.23841573851E+02  0.60854280187E+03  0.60901837763E+03  0.00000000000E+00 0. -1.
        -14    1    6    6    0    0 -0.20528741975E+02  0.36318509484E+02  0.12832210258E+03  0.13493341095E+03  0.00000000000E+00 0.  1.
</event>
<event>
12    1  0.8297444E-002  0.2092114E+03  0.7818608E-02  0.1142213E+00
         21   -1    0    0  503  502  0.00000000000E+00  0.00000000000E+00  0.54178621863E+02  0.54178621863E+02  0.00000000000E+00 0. -1.
         21   -1    0    0  501  503 -0.00000000000E+00 -0.00000000000E+00 -0.91192653575E+03  0.91192653575E+03  0.00000000000E+00 0. -1.
          6    2    1    2  501    0 -0.32427126191E+02  0.11511217591E+03 -0.59227403678E+03  0.62810251189E+03  0.17152812961E+03 0.  0.
         24    2    3    3    0    0 -0.72422565726E+02  0.86430212311E+02 -0.26936639797E+03  0.30143184681E+03  0.74750868177E+02 0.  0.
         -6    2    1    2    0  502  0.32427126191E+02 -0.11511217591E+03 -0.26547387711E+03  0.33800264572E+03  0.17165977261E+03 0.  0.
        -24    2    5    5    0    0 -0.22575711944E+02 -0.85611948095E+02 -0.83740982049E+02  0.14579309655E+03  0.80025036721E+02 0.  0.
          5    1    3    3  501    0  0.39995439535E+02  0.28681963594E+02 -0.32290763881E+03  0.32667066508E+03  0.47000000000E+01 0. -1.
        -13    1    4    4    0    0 -0.61442628118E+02  0.15456843480E+02 -0.13242870418E+03  0.14680419698E+03  0.00000000000E+00 0.  1.
         14    1    4    4    0    0 -0.10979937608E+02  0.70973368831E+02 -0.13693769379E+03  0.15462764983E+03  0.00000000000E+00 0. -1.
         -5    1    5    5    0  502  0.55002838135E+02 -0.29500227811E+02 -0.18173289506E+03  0.19220954917E+03  0.47000000000E+01 0.  1.
         11    1    6    6    0    0 -0.12238408870E+02 -0.99612980783E+02 -0.79085985567E+02  0.12777761034E+03  0.00000000000E+00 0. -1.
        -12    1    6    6    0    0 -0.10337303074E+02  0.14001032688E+02 -0.46549964813E+01  0.18015486211E+02  0.00000000000E+00 0.  1.
</event>
<event>
12    1  0.8297444E-002  0.1854892E+03  0.7818608E-02  0.1164074E+00
         21   -1    0    0  501  502  0.00000000000E+00  0.00000000000E+00  0.38626463771E+02  0.38626463771E+02  0.00000000000E+00 0.  1.
         21   -1    0    0  502  503 -0.00000000000E+00 -0.00000000000E+00 -0.10556470456E+04  0.10556470456E+04  0.00000000000E+00 0.  1.
         -6    2    1    2    0  503 -0.28175999059E+02  0.44690224631E+02 -0.73632205394E+03  0.75782453532E+03  0.17127975979E+03 0.  0.
        -24    2    3    3    0    0  0.35259812925E+02 -0.13173867919E+02 -0.45359721330E+03  0.46231179284E+03  0.81024420320E+02 0.  0.
          6    2    1    2  501    0  0.28175999059E+02 -0.44690224631E+02 -0.28069852785E+03  0.33644897401E+03  0.17780648322E+03 0.  0.
         24    2    5    5    0    0  0.27331947393E+02 -0.13947542206E+02 -0.29139945264E+03  0.30354875004E+03  0.79288292732E+02 0.  0.
          5    1    5    5  501    0  0.84405166576E+00 -0.30742682425E+02  0.10700924799E+02  0.32900223973E+02  0.47000000000E+01 0. -1.
        -13    1    6    6    0    0  0.44490094833E+02  0.39970189532E+01 -0.88482843822E+02  0.99118910152E+02  0.00000000000E+00 0.  1.
         14    1    6    6    0    0 -0.17158147440E+02 -0.17944561159E+02 -0.20291660882E+03  0.20442983988E+03  0.00000000000E+00 0. -1.
         -5    1    3    3    0  503 -0.63435811984E+02  0.57864092550E+02 -0.28272484064E+03  0.29551274248E+03  0.47000000000E+01 0.  1.
         11    1    4    4    0    0  0.22394734426E+02 -0.44030762852E+02 -0.17914820485E+03  0.18583409673E+03  0.00000000000E+00 0. -1.
        -12    1    4    4    0    0  0.12865078499E+02  0.30856894933E+02 -0.27444900845E+03  0.27647769611E+03  0.00000000000E+00 0.  1.
</event>
<event>
12    1  0.8297444E-002  0.1803049E+03  0.7818608E-02  0.1167678E+00
         21   -1    0    0  501  502  0.00000000000E+00  0.00000000000E+00  0.18180013379E+04  0.18180013379E+04  0.00000000000E+00 0.  1.
         21   -1    0    0  502  503 -0.00000000000E+00 -0.00000000000E+00 -0.17934559157E+02  0.17934559157E+02  0.00000000000E+00 0. -1.
         -6    2    1    2    0  503  0.11637322645E+02  0.51601349715E+02  0.97397021379E+03  0.99039145376E+03  0.17163661547E+03 0.  0.
        -24    2    3    3    0    0 -0.25018259227E+02  0.95788052450E+02  0.68109330819E+03  0.69190348380E+03  0.71000508060E+02 0.  0.
          6    2    1    2  501    0 -0.11637322645E+02 -0.51601349715E+02  0.82609656494E+03  0.84554444327E+03  0.17237094993E+03 0.  0.
         24    2    5    5    0    0 -0.72250546914E+02 -0.23697068063E+02  0.59613964390E+03  0.60605563889E+03  0.78353492852E+02 0.  0.
          5    1    5    5  501    0  0.60613224269E+02 -0.27904281652E+02  0.22995692104E+03  0.23948880438E+03  0.47000000000E+01 0. -1.
        -13    1    6    6    0    0 -0.55262008130E+02 -0.50277210917E+02  0.47676904811E+03  0.48258720737E+03  0.00000000000E+00 0.  1.
         14    1    6    6    0    0 -0.16988538784E+02  0.26580142854E+02  0.11937059579E+03  0.12346843152E+03  0.00000000000E+00 0. -1.
         -5    1    3    3    0  503  0.36655581872E+02 -0.44186702735E+02  0.29287690560E+03  0.29848796997E+03  0.47000000000E+01 0.  1.
         13    1    4    4    0    0  0.50583420158E+01 -0.97387295403E+01  0.94527333842E+02  0.95162211620E+02  0.00000000000E+00 0. -1.
        -14    1    4    4    0    0 -0.30076601243E+02  0.10552678199E+03  0.58656597435E+03  0.59674127218E+03  0.00000000000E+00 0.  1.
</event>
<event>
12    1  0.8297444E-002  0.2689345E+03  0.7818608E-02  0.1101934E+00
         21   -1    0    0  503  502  0.00000000000E+00  0.00000000000E+00  0.52750460362E+03  0.52750460362E+03  0.00000000000E+00 0.  1.
         21   -1    0    0  501  503 -0.00000000000E+00 -0.00000000000E+00 -0.25911028714E+03  0.25911028714E+03  0.00000000000E+00 0. -1.
          6    2    1    2  501    0 -0.94616026391E+02  0.18294189609E+03 -0.13589346711E+03  0.30104883121E+03  0.17246284984E+03 0.  0.
         24    2    3    3    0    0 -0.10593019467E+03  0.13048649931E+03 -0.39930718227E+02  0.19100103146E+03  0.81480053499E+02 0.  0.
         -6    2    1    2    0  502  0.94616026391E+02 -0.18294189609E+03  0.40428778359E+03  0.48556605955E+03  0.17293309816E+03 0.  0.
        -24    2    5    5    0    0  0.54544192985E+02 -0.14110307487E+03  0.16013496637E+03  0.23459011061E+03  0.80648408641E+02 0.  0.
          5    1    3    3  501    0  0.11314168274E+02  0.52455396779E+02 -0.95962748887E+02  0.11004779975E+03  0.47000000000E+01 0. -1.
        -11    1    4    4    0    0 -0.39072611842E+02  0.13283099679E+02  0.16892891880E+02  0.44592370752E+02  0.00000000000E+00 0.  1.
         12    1    4    4    0    0 -0.66857582824E+02  0.11720339963E+03 -0.56823610106E+02  0.14640866071E+03  0.00000000000E+00 0. -1.
         -5    1    5    5    0  502  0.40071833406E+02 -0.41838821220E+02  0.24415281722E+03  0.25097594894E+03  0.47000000000E+01 0.  1.
         13    1    6    6    0    0 -0.43652578766E+01  0.85883321680E+01  0.40636656841E+01  0.10456017624E+02  0.00000000000E+00 0. -1.
        -14    1    6    6    0    0  0.58909450862E+02 -0.14969140703E+03  0.15607130069E+03  0.22413409299E+03  0.00000000000E+00 0.  1.
</event>
<event>
12    1  0.8297444E-002  0.2210264E+03  0.7818608E-02  0.1133300E+00
         21   -1    0    0  503  502  0.00000000000E+00  0.00000000000E+00  0.45243697003E+02  0.45243697003E+02  0.00000000000E+00 0. -1.
         21   -1    0    0  501  503 -0.00000000000E+00 -0.00000000000E+00 -0.11086726430E+04  0.11086726430E+04  0.00000000000E+00 0. -1.
          6    2    1    2  501    0 -0.13081050695E+03  0.44193200136E+02 -0.43234401073E+03  0.48556566649E+03  0.17259271477E+03 0.  0.
         24    2    3    3    0    0 -0.86615408497E+02  0.94358859002E+02 -0.31733739224E+03  0.35245513966E+03  0.84355092891E+02 0.  0.
         -6    2    1    2    0  502  0.13081050695E+03 -0.44193200136E+02 -0.63108493525E+03  0.66835067350E+03  0.17134759875E+03 0.  0.
        -24    2    5    5    0    0  0.69079754685E+02 -0.93543714689E+02 -0.41205883451E+03  0.43545438356E+03  0.79407795575E+02 0.  0.
          5    1    3    3  501    0 -0.44195098452E+02 -0.50165658866E+02 -0.11500661849E+03  0.13311052683E+03  0.47000000000E+01 0. -1.
        -11    1    4    4    0    0  0.24138687830E+01 -0.76995361157E+01 -0.73576119135E+00  0.81025282122E+01  0.00000000000E+00 0.  1.
         12    1    4    4    0    0 -0.89029277280E+02  0.10205839512E+03 -0.31660163105E+03  0.34435261145E+03  0.00000000000E+00 0. -1.
         -5    1    5    5    0  502  0.61730752264E+02  0.49350514553E+02 -0.21902610074E+03  0.23289628994E+03  0.47000000000E+01 0.  1.
         13    1    6    6    0    0  0.73562863838E+02 -0.48271577524E+02 -0.19885782698E+03  0.21745361685E+03  0.00000000000E+00 0. -1.
        -14    1    6    6    0    0 -0.44831091529E+01 -0.45272137165E+02 -0.21320100754E+03  0.21800076671E+03  0.00000000000E+00 0.  1.
</event>
<event>
12    1  0.8297444E-002  0.1963741E+03  0.7818608E-02  0.1153317E+00
         21   -1    0    0  503  502  0.00000000000E+00  0.00000000000E+00  0.36398803728E+03  0.36398803728E+03  0.00000000000E+00 0. -1.
         21   -1    0    0  501  503 -0.00000000000E+00 -0.00000000000E+00 -0.11461844888E+03  0.11461844888E+03  0.00000000000E+00 0. -1.
          6    2    1    2  501    0  0.91786268748E+02  0.17584444371E+02  0.55119840937E+02  0.20396321351E+03  0.17271034650E+03 0.  0.
         24    2    3    3    0    0 -0.28465685956E+02  0.38880895425E+01  0.30974090021E+02  0.80459245833E+02  0.68475422381E+02 0.  0.
         -6    2    1    2    0  502 -0.91786268748E+02 -0.17584444371E+02  0.19424974747E+03  0.27464327265E+03  0.17018234634E+03 0.  0.
        -24    2    5    5    0    0 -0.66364537039E+02  0.53869524107E+02  0.96951118857E+02  0.15118863651E+03  0.78436642959E+02 0.  0.
          5    1    3    3  501    0  0.12025195470E+03  0.13696354829E+02  0.24145750917E+02  0.12350396768E+03  0.47000000000E+01 0. -1.
        -13    1    4    4    0    0 -0.21174856083E+02  0.24788681397E+02  0.44010306271E+02  0.54770067679E+02  0.00000000000E+00 0.  1.
         14    1    4    4    0    0 -0.72908298729E+01 -0.20900591855E+02 -0.13036216250E+02  0.25689178154E+02  0.00000000000E+00 0. -1.
         -5    1    5    5    0  502 -0.25421731709E+02 -0.71453968478E+02  0.97298628609E+02  0.12345463614E+03  0.47000000000E+01 0.  1.
         13    1    6    6    0    0 -0.21512365076E+02  0.53773573645E+02  0.18462568590E+02  0.60788531095E+02  0.00000000000E+00 0. -1.
        -14    1    6    6    0    0 -0.44852171963E+02  0.95950461996E-01  0.78488550267E+02  0.90400105417E+02  0.00000000000E+00 0.  1.
</event>
<event>
12    1  0.8297444E-002  0.1838937E+03  0.7818608E-02  0.1164284E+00
         21   -1    0    0  503  502  0.00000000000E+00  0.00000000000E+00  0.17319252903E+04  0.17319252903E+04  0.00000000000E+00 0. -1.
         21   -1    0    0  501  503 -0.00000000000E+00 -0.00000000000E+00 -0.60339777552E+02  0.60339777552E+02  0.00000000000E+00 0. -1.
          6    2    1    2  501    0 -0.47112983636E+02  0.45733679368E+02  0.97364491232E+02  0.20733960624E+03  0.17087617010E+03 0.  0.
         24    2    3    3    0    0  0.19046485422E+02  0.43242887089E+02  0.14213310301E+01  0.90675732735E+02  0.77377984171E+02 0.  0.
         -6    2    1    2    0  502  0.47112983636E+02 -0.45733679368E+02  0.15742210215E+04  0.15849254616E+04  0.17177220852E+03 0.  0.
        -24    2    5    5    0    0 -0.25579294137E+02 -0.62229299800E+02  0.71805020403E+03  0.72550307916E+03  0.78941980727E+02 0.  0.
          5    1    3    3  501    0 -0.66159469058E+02  0.24907922790E+01  0.95943160202E+02  0.11666387351E+03  0.47000000000E+01 0. -1.
        -13    1    4    4    0    0  0.32713015155E+02  0.24970901100E+02  0.32275504132E+02  0.52301007918E+02  0.00000000000E+00 0.  1.
         14    1    4    4    0    0 -0.13666529733E+02  0.18271985990E+02 -0.30854173102E+02  0.38374724817E+02  0.00000000000E+00 0. -1.
         -5    1    5    5    0  502  0.72692277773E+02  0.16495620432E+02  0.85617081746E+03  0.85942238242E+03  0.47000000000E+01 0.  1.
         11    1    6    6    0    0 -0.32070351265E+02 -0.21185733318E+02  0.11987482848E+03  0.12588612803E+03  0.00000000000E+00 0. -1.
        -12    1    6    6    0    0  0.64910571279E+01 -0.41043566482E+02  0.59817537554E+03  0.59961695113E+03  0.00000000000E+00 0.  1.
</event>
<event>
12    1  0.8297444E-002  0.3389770E+03  0.7818608E-02  0.1067264E+00
         21   -1    0    0  501  502  0.00000000000E+00  0.00000000000E+00  0.30491614354E+03  0.30491614354E+03  0.00000000000E+00 0. -1.
         21   -1    0    0  502  503 -0.00000000000E+00 -0.00000000000E+00 -0.38025177210E+03  0.38025177210E+03  0.00000000000E+00 0.  1.
         -6    2    1    2    0  503  0.20932632060E+03 -0.20354966281E+03 -0.37090397319E+01  0.33870614001E+03  0.17163367555E+03 0.  0.
        -24    2    3    3    0    0  0.17044494938E+03 -0.84104298608E+02  0.29917546812E+02  0.20858391524E+03  0.80543008868E+02 0.  0.
          6    2    1    2  501    0 -0.20932632060E+03  0.20354966281E+03 -0.71626588830E+02  0.34646177563E+03  0.17220749119E+03 0.  0.
         24    2    5    5    0    0 -0.16031653912E+03  0.18488742891E+03 -0.11084997907E+03  0.28080507760E+03  0.81725269424E+02 0.  0.
          5    1    5    5  501    0 -0.49009781477E+02  0.18662233904E+02  0.39223390242E+02  0.65656698034E+02  0.47000000000E+01 0. -1.
        -13    1    6    6    0    0 -0.16406726222E+03  0.18852307113E+03 -0.10080329185E+03  0.26948157363E+03  0.00000000000E+00 0.  1.
         14    1    6    6    0    0  0.37507230932E+01 -0.36356422202E+01 -0.10046687220E+02  0.11323503971E+02  0.00000000000E+00 0. -1.
         -5    1    3    3    0  503  0.38881371222E+02 -0.11944536420E+03 -0.33626586544E+02  0.13012222477E+03  0.47000000000E+01 0.  1.
         11    1    4    4    0    0  0.17225406001E+02 -0.39282183766E+02  0.23283841522E+02  0.48805141628E+02  0.00000000000E+00 0. -1.
        -12    1    4    4    0    0  0.15321954338E+03 -0.44822114841E+02  0.66337052907E+01  0.15977877361E+03  0.00000000000E+00 0.  1.
</event>
<event>
12    1  0.8297444E-002  0.1878838E+03  0.7818608E-02  0.1160876E+00
         21   -1    0    0  503  502  0.00000000000E+00  0.00000000000E+00  0.22720718165E+02  0.22720718165E+02  0.00000000000E+00 0. -1.
         21   -1    0    0  501  503 -0.00000000000E+00 -0.00000000000E+00 -0.15783588082E+04  0.15783588082E+04  0.00000000000E+00 0.  1.
          6    2    1    2  501    0  0.70009941118E+02 -0.23409680377E+02 -0.65107490571E+03  0.67764212895E+03  0.17277417949E+03 0.  0.
         24    2    3    3    0    0  0.89701247126E+02 -0.31221641648E+02 -0.64227597020E+03  0.65422663115E+03  0.80454697608E+02 0.  0.
         -6    2    1    2    0  502 -0.70009941118E+02  0.23409680377E+02 -0.90456318429E+03  0.92343739737E+03  0.17044843064E+03 0.  0.
        -24    2    5    5    0    0  0.19925424310E+02 -0.17286776773E+02 -0.33463482335E+03  0.34500417030E+03  0.79696658284E+02 0.  0.
          5    1    3    3  501    0 -0.19691306008E+02  0.78119612709E+01 -0.87989355077E+01  0.23415497801E+02  0.47000000000E+01 0. -1.
        -11    1    4    4    0    0 -0.10856796230E+02  0.82571637862E+01 -0.12812091882E+03  0.12884494797E+03  0.00000000000E+00 0.  1.
         12    1    4    4    0    0  0.10055804336E+03 -0.39478805434E+02 -0.51415505138E+03  0.52538168318E+03  0.00000000000E+00 0. -1.
         -5    1    5    5    0  502 -0.89935365428E+02  0.40696457150E+02 -0.56992836094E+03  0.57843322707E+03  0.47000000000E+01 0.  1.
         13    1    6    6    0    0 -0.19805900070E+02 -0.11746991065E+02 -0.30404967839E+02  0.38140890733E+02  0.00000000000E+00 0. -1.
        -14    1    6    6    0    0  0.39731324381E+02 -0.55397857083E+01 -0.30422985551E+03  0.30686327957E+03  0.00000000000E+00 0.  1.
</event>
<event>
12    1  0.8297444E-002  0.1933462E+03  0.7818608E-02  0.1155887E+00
         21   -1    0    0  503  502  0.00000000000E+00  0.00000000000E+00  0.24579642339E+04  0.24579642339E+04  0.00000000000E+00 0. -1.
         21   -1    0    0  501  503 -0.00000000000E+00 -0.00000000000E+00 -0.15064659008E+02  0.15064659008E+02  0.00000000000E+00 0.  1.
          6    2    1    2  501    0  0.85036937458E+02  0.57520164266E+01  0.12245809217E+04  0.12394636955E+04  0.17148601194E+03 0.  0.
         24    2    3    3    0    0  0.32944145004E+02 -0.31632905075E+01  0.27018902244E+03  0.28359805167E+03  0.79563961473E+02 0.  0.
         -6    2    1    2    0  502 -0.85036937458E+02 -0.57520164266E+01  0.12183186533E+04  0.12335651975E+04  0.17354650406E+03 0.  0.
        -24    2    5    5    0    0 -0.50521067934E+02  0.54315080934E+02  0.95568373819E+03  0.96190623838E+03  0.80185395593E+02 0.  0.
          5    1    3    3  501    0  0.52092792454E+02  0.89153069341E+01  0.95439189922E+03  0.95586564381E+03  0.47000000000E+01 0. -1.
        -11    1    4    4    0    0 -0.17339156506E+00 -0.30901855642E+02  0.46879436283E+02  0.56148341854E+02  0.00000000000E+00 0.  1.
         12    1    4    4    0    0  0.33117536569E+02  0.27738565135E+02  0.22330958616E+03  0.22744970981E+03  0.00000000000E+00 0. -1.
         -5    1    5    5    0  502 -0.34515869523E+02 -0.60067097361E+02  0.26263491508E+03  0.27165895909E+03  0.47000000000E+01 0.  1.
         13    1    6    6    0    0 -0.72331653802E+02  0.46129082938E+02  0.77146412957E+03  0.77621946874E+03  0.00000000000E+00 0. -1.
        -14    1    6    6    0    0  0.21810585868E+02  0.81859979966E+01  0.18421960863E+03  0.18568676965E+03  0.00000000000E+00 0.  1.
</event>
<event>
12    1  0.8297444E-002  0.2436373E+03  0.7818608E-02  0.1117453E+00
         21   -1    0    0  501  502  0.00000000000E+00  0.00000000000E+00  0.57962261074E+03  0.57962261074E+03  0.00000000000E+00 0. -1.
         21   -1    0    0  502  503 -0.00000000000E+00 -0.00000000000E+00 -0.18355676510E+03  0.18355676510E+03  0.00000000000E+00 0. -1.
         -6    2    1    2    0  503  0.11004978644E+03 -0.13316500834E+03 -0.55840886132E+02  0.24995470540E+03  0.17180010259E+03 0.  0.
        -24    2    3    3    0    0  0.76475631775E+02 -0.17308242984E+02 -0.64558242974E+02  0.12892538561E+03  0.79409639142E+02 0.  0.
          6    2    1    2  501    0 -0.11004978644E+03  0.13316500834E+03  0.45190673177E+03  0.51322467044E+03  0.17127753265E+03 0.  0.
         24    2    5    5    0    0 -0.19574553466E+02  0.99326564394E+02  0.34930389167E+03  0.37222736243E+03  0.79316272407E+02 0.  0.
          5    1    5    5  501    0 -0.90475232971E+02  0.33838443943E+02  0.10260284010E+03  0.14099730801E+03  0.47000000000E+01 0. -1.
        -13    1    6    6    0    0  0.23596983009E+02  0.44949057640E+01  0.54771172247E+02  0.59807216072E+02  0.00000000000E+00 0.  1.
         14    1    6    6    0    0 -0.43171536475E+02  0.94831658630E+02  0.29453271942E+03  0.31242014636E+03  0.00000000000E+00 0. -1.
         -5    1    3    3    0  503  0.33574154662E+02 -0.11585676535E+03  0.87173568419E+01  0.12102931979E+03  0.47000000000E+01 0.  1.
         13    1    4    4    0    0  0.79646866226E+02 -0.39015379511E+02 -0.58216745020E+02  0.10608964388E+03  0.00000000000E+00 0. -1.
        -14    1    4    4    0    0 -0.31712344504E+01  0.21707136527E+02 -0.63414979548E+01  0.22835741732E+02  0.00000000000E+00 0.  1.
</event>
<event>
12    1  0.8297444E-002  0.1821823E+03  0.7818608E-02  0.1165822E+00
         21   -1    0    0  501  502  0.00000000000E+00  0.00000000000E+00  0.67744487603E+03  0.67744487603E+03  0.00000000000E+00 0. -1.
         21   -1    0    0  502  503 -0.00000000000E+00 -0.00000000000E+00 -0.52048505157E+02  0.52048505157E+02  0.00000000000E+00 0. -1.
         -6    2    1    2    0  503 -0.24758838189E+02 -0.49549654693E+02  0.40330646778E+03  0.44254549517E+03  0.17355759849E+03 0.  0.
        -24    2    3    3    0    0 -0.55138219458E+02  0.24060019990E+02  0.18964350706E+03  0.21447699275E+03  0.80103762972E+02 0.  0.
          6    2    1    2  501    0  0.24758838189E+02  0.49549654693E+02  0.22208990309E+03  0.28694788602E+03  0.17305200341E+03 0.  0.
         24    2    5    5    0    0 -0.35572978640E+02  0.18697823832E+02  0.19343739886E+03  0.21322665713E+03  0.80203083529E+02 0.  0.
          5    1    5    5  501    0  0.60331816829E+02  0.30851830861E+02  0.28652504231E+02  0.73721228883E+02  0.47000000000E+01 0. -1.
        -13    1    6    6    0    0 -0.60400832615E+02  0.20779582023E+02  0.12458992682E+03  0.14000964780E+03  0.00000000000E+00 0.  1.
         14    1    6    6    0    0  0.24827853975E+02 -0.20817581910E+01  0.68847472038E+02  0.73217009337E+02  0.00000000000E+00 0. -1.
         -5    1    3    3    0  503  0.30379381268E+02 -0.73609674683E+02  0.21366296072E+03  0.22806850242E+03  0.47000000000E+01 0.  1.
         13    1    4    4    0    0 -0.28388238122E+02  0.27352228274E+02  0.18234061148E+03  0.18655330351E+03  0.00000000000E+00 0. -1.
        -14    1    4    4    0    0 -0.26749981336E+02 -0.32922082837E+01  0.73028955765E+01  0.27923689238E+02  0.00000000000E+00 0.  1.
</event>
<event>
12    1  0.8297444E-002  0.1720404E+03  0.7818608E-02  0.1175768E+00
         21   -1    0    0  501  502  0.00000000000E+00  0.00000000000E+00  0.35731248365E+03  0.35731248365E+03  0.00000000000E+00 0. -1.
         21   -1    0    0  502  503 -0.00000000000E+00 -0.00000000000E+00 -0.17414944865E+03  0.17414944865E+03  0.00000000000E+00 0. -1.
         -6    2    1    2    0  503  0.61933282608E+00 -0.39935380743E+01 -0.10088490168E+03  0.19943838138E+03  0.17199294364E+03 0.  0.
        -24    2    3    3    0    0  0.95768031822E+01 -0.68792835682E+02 -0.52072720891E+02  0.11768323329E+03  0.79458201190E+02 0.  0.
          6    2    1    2  501    0 -0.61933282608E+00  0.39935380743E+01  0.28404793668E+03  0.33202355092E+03  0.17187226685E+03 0.  0.
         24    2    5    5    0    0  0.34572617870E+02 -0.55485884133E+02  0.17550763786E+03  0.20326268137E+03  0.78986311755E+02 0.  0.
          5    1    5    5  501    0 -0.35191950696E+02  0.59479422207E+02  0.10854029882E+03  0.12876086955E+03  0.47000000000E+01 0. -1.
        -13    1    6    6    0    0 -0.99516546758E+01 -0.36033215736E+01 -0.38922519047E+01  0.11276922543E+02  0.00000000000E+00 0.  1.
         14    1    6    6    0    0  0.44524272546E+02 -0.51882562559E+02  0.17939988977E+03  0.19198575882E+03  0.00000000000E+00 0. -1.
         -5    1    3    3    0  503 -0.89574703562E+01  0.64799297608E+02 -0.48812180788E+02  0.81755148088E+02  0.47000000000E+01 0.  1.
         13    1    4    4    0    0 -0.15021658414E+01 -0.28922116958E+02  0.19566403698E+02  0.34951244688E+02  0.00000000000E+00 0. -1.
        -14    1    4    4    0    0  0.11078969024E+02 -0.39870718724E+02 -0.71639124589E+02  0.82731988602E+02  0.00000000000E+00 0.  1.
</event>
<event>
12    1  0.8297444E-002  0.2006786E+03  0.7818608E-02  0.1150587E+00
         21   -1    0    0  503  502  0.00000000000E+00  0.00000000000E+00  0.12247006012E+03  0.12247006012E+03  0.00000000000E+00 0.  1.
         21   -1    0    0  501  503 -0.00000000000E+00 -0.00000000000E+00 -0.33376269278E+03  0.33376269278E+03  0.00000000000E+00 0.  1.
          6    2    1    2  501    0  0.28150005224E+00  0.89845860697E+02 -0.15683796778E+03  0.25469602421E+03  0.17944235478E+03 0.  0.
         24    2    3    3    0    0  0.16059472684E+02  0.10197087262E+03 -0.18088434786E+03  0.22313214090E+03  0.80080206518E+02 0.  0.
         -6    2    1    2    0  502 -0.28150005224E+00 -0.89845860697E+02 -0.54454664883E+02  0.20153672869E+03  0.17198658249E+03 0.  0.
        -24    2    5    5    0    0  0.17588444290E+02  0.17299451620E+02 -0.26959708913E+02  0.89387205881E+02  0.81575868194E+02 0.  0.
          5    1    3    3  501    0 -0.15777972632E+02 -0.12125011923E+02  0.24046380085E+02  0.31563883312E+02  0.47000000000E+01 0. -1.
        -13    1    4    4    0    0  0.48401329213E+02  0.69871036578E+02 -0.12149392590E+03  0.14827482744E+03  0.00000000000E+00 0.  1.
         14    1    4    4    0    0 -0.32341856529E+02  0.32099836042E+02 -0.59390421960E+02  0.74857313459E+02  0.00000000000E+00 0. -1.
         -5    1    5    5    0  502 -0.17869944342E+02 -0.10714531232E+03 -0.27494955970E+02  0.11214952281E+03  0.47000000000E+01 0.  1.
         11    1    6    6    0    0  0.31420674028E+02 -0.23059794100E+02 -0.10405682845E+00  0.38974654433E+02  0.00000000000E+00 0. -1.
        -12    1    6    6    0    0 -0.13832229739E+02  0.40359245720E+02 -0.26855652084E+02  0.50412551448E+02  0.00000000000E+00 0.  1.
</event>
<event>
12    1  0.8297444E-002  0.1825059E+03  0.7818608E-02  0.1165983E+00
         21   -1    0    0  501  502  0.00000000000E+00  0.00000000000E+00  0.69100633411E+03  0.69100633411E+03  0.00000000000E+00 0. -1.
         21   -1    0    0  502  503 -0.00000000000E+00 -0.00000000000E+00 -0.60723602020E+02  0.60723602020E+02  0.00000000000E+00 0. -1.
         -6    2    1    2    0  503 -0.53926817765E+02 -0.34781303315E+02  0.14181262113E+03  0.23112596775E+03  0.17085242967E+03 0.  0.
        -24    2    3    3    0    0 -0.75990238860E+02  0.72179028525E+01  0.35520105171E+02  0.11463168970E+03  0.77795449026E+02 0.  0.
          6    2    1    2  501    0  0.53926817765E+02  0.34781303315E+02  0.48847011096E+03  0.52060396838E+03  0.16824863107E+03 0.  0.
         24    2    5    5    0    0  0.97252920961E+02  0.24545730895E+01  0.33195787457E+03  0.35495271168E+03  0.79569098757E+02 0.  0.
          5    1    5    5  501    0 -0.43326103196E+02  0.32326730226E+02  0.15651223640E+03  0.16565125670E+03  0.47000000000E+01 0. -1.
        -11    1    6    6    0    0  0.88619165908E+01  0.46910164692E+01  0.17111649305E+03  0.17141001545E+03  0.00000000000E+00 0.  1.
         12    1    6    6    0    0  0.88391004370E+02 -0.22364433796E+01  0.16084138151E+03  0.18354269623E+03  0.00000000000E+00 0. -1.
         -5    1    3    3    0  503  0.22063421095E+02 -0.41999206168E+02  0.10629251596E+03  0.11649427805E+03  0.47000000000E+01 0.  1.
         11    1    4    4    0    0 -0.32699768070E+02 -0.13597071013E+02  0.52805784824E+02  0.63581491669E+02  0.00000000000E+00 0. -1.
        -12    1    4    4    0    0 -0.43290470790E+02  0.20814973866E+02 -0.17285679653E+02  0.51050198034E+02  0.00000000000E+00 0.  1.
</event>
<event>
12    1  0.8297444E-002  0.2162833E+03  0.7818608E-02  0.1138257E+00
         21   -1    0    0  503  502  0.00000000000E+00  0.00000000000E+00  0.37106986079E+03  0.37106986079E+03  0.00000000000E+00 0.  1.
         21   -1    0    0  501  503 -0.00000000000E+00 -0.00000000000E+00 -0.12226670185E+03  0.12226670185E+03  0.00000000000E+00 0.  1.
          6    2    1    2  501    0  0.13146654271E+03  0.14913122314E+02  0.10594350321E+03  0.24083710902E+03  0.17109247249E+03 0.  0.
         24    2    3    3    0    0  0.66161061062E+02  0.71860716379E+02  0.81908820463E+02  0.15079495013E+03  0.80553172231E+02 0.  0.
         -6    2    1    2    0  502 -0.13146654271E+03 -0.14913122314E+02  0.14285965573E+03  0.25249945362E+03  0.16075210658E+03 0.  0.
        -24    2    5    5    0    0 -0.52960205618E+02 -0.34763808435E+02  0.13775227527E+03  0.17122541078E+03  0.79555931266E+02 0.  0.
          5    1    3    3  501    0  0.65305481650E+02 -0.56947594065E+02  0.24034682745E+02  0.90042158892E+02  0.47000000000E+01 0. -1.
        -11    1    4    4    0    0 -0.27865916550E+00  0.24170886081E+02  0.62111301128E+02  0.66649254404E+02  0.00000000000E+00 0.  1.
         12    1    4    4    0    0  0.66439720227E+02  0.47689830299E+02  0.19797519336E+02  0.84145695729E+02  0.00000000000E+00 0. -1.
         -5    1    5    5    0  502 -0.78506337093E+02  0.19850686121E+02  0.51073804610E+01  0.81274042833E+02  0.47000000000E+01 0.  1.
         13    1    6    6    0    0 -0.63918196595E+01  0.20637674894E+02  0.65451799712E+02  0.68925373188E+02  0.00000000000E+00 0. -1.
        -14    1    6    6    0    0 -0.46568385959E+02 -0.55401483330E+02  0.72300475559E+02  0.10230003759E+03  0.00000000000E+00 0.  1.
</event>
<event>
12    1  0.8297444E-002  0.2164837E+03  0.7818608E-02  0.1136651E+00
         21   -1    0    0  501  502  0.00000000000E+00  0.00000000000E+00  0.20171664137E+04  0.20171664137E+04  0.00000000000E+00 0. -1.
         21   -1    0    0  502  503 -0.00000000000E+00 -0.00000000000E+00 -0.26735988347E+02  0.26735988347E+02  0.00000000000E+00 0.  1.
         -6    2    1    2    0  503 -0.11832609845E+03  0.55081421263E+02  0.62056358317E+03  0.65703530368E+03  0.17193371102E+03 0.  0.
        -24    2    3    3    0    0 -0.66972507982E+02  0.98127901014E+02  0.34760822435E+03  0.37593583983E+03  0.79886646226E+02 0.  0.
          6    2    1    2  501    0  0.11832609845E+03 -0.55081421263E+02  0.13698668422E+04  0.13868670984E+04  0.17271408360E+03 0.  0.
         24    2    5    5    0    0  0.76404292187E+02 -0.22938059830E+01  0.40769643810E+03  0.42232682100E+03  0.79376827132E+02 0.  0.
          5    1    5    5  501    0  0.41921806259E+02 -0.52787615280E+02  0.96217040410E+03  0.96454027738E+03  0.47000000000E+01 0. -1.
        -11    1    6    6    0    0  0.58908654845E+02  0.26782642888E+02  0.34518864099E+03  0.35120184716E+03  0.00000000000E+00 0.  1.
         12    1    6    6    0    0  0.17495637342E+02 -0.29076448871E+02  0.62507797107E+02  0.71124973843E+02  0.00000000000E+00 0. -1.
         -5    1    3    3    0  503 -0.51353590463E+02 -0.43046479751E+02  0.27295535882E+03  0.28109946385E+03  0.47000000000E+01 0.  1.
         13    1    4    4    0    0 -0.33338546352E+02 -0.37645019816E+01  0.11457262572E+03  0.11938390475E+03  0.00000000000E+00 0. -1.
        -14    1    4    4    0    0 -0.33633961630E+02  0.10189240300E+03  0.23303559863E+03  0.25655193508E+03  0.00000000000E+00 0.  1.
</event>
<event>
12    1  0.8297444E-002  0.1760105E+03  0.7818608E-02  0.1172283E+00
         21   -1    0    0  503  502  0.00000000000E+00  0.00000000000E+00  0.21812349397E+03  0.21812349397E+03  0.00000000000E+00 0.  1.
         21   -1    0    0  501  503 -0.00000000000E+00 -0.00000000000E+00 -0.39081384625E+03  0.39081384625E+03  0.00000000000E+00 0.  1.
          6    2    1    2  501    0 -0.18627940713E+02  0.27132600671E+02 -0.33034422541E+03  0.37430870196E+03  0.17290609852E+03 0.  0.
         24    2    3    3    0    0  0.49315277769E+02 -0.10511259313E+02 -0.19499937099E+03  0.21818804109E+03  0.83897457608E+02 0.  0.
         -6    2    1    2    0  502  0.18627940713E+02 -0.27132600671E+02  0.15765387312E+03  0.23462863827E+03  0.17062437103E+03 0.  0.
        -24    2    5    5    0    0  0.15485758481E+02 -0.23765881852E+02  0.77079296777E+01  0.84538385216E+02  0.79263488058E+02 0.  0.
          5    1    3    3  501    0 -0.67943218483E+02  0.37643859984E+02 -0.13534485442E+03  0.15612066087E+03  0.47000000000E+01 0. -1.
        -13    1    4    4    0    0  0.31968130531E+02 -0.32092489999E+02 -0.18208630090E+03  0.18763611129E+03  0.00000000000E+00 0.  1.
         14    1    4    4    0    0  0.17347147239E+02  0.21581230685E+02 -0.12913070088E+02  0.30551929797E+02  0.00000000000E+00 0. -1.
         -5    1    5    5    0  502  0.31421822323E+01 -0.33667188185E+01  0.14994594345E+03  0.15009025305E+03  0.47000000000E+01 0.  1.
         13    1    6    6    0    0  0.24377155914E+02  0.97832011629E+01  0.32572168596E+02  0.41843791923E+02  0.00000000000E+00 0. -1.
        -14    1    6    6    0    0 -0.88913974333E+01 -0.33549083015E+02 -0.24864238918E+02  0.42694593293E+02  0.00000000000E+00 0.  1.
</event>
<event>
12    1  0.8297444E-002  0.1796161E+03  0.7818608E-02  0.1170522E+00
         21   -1    0    0  501  502  0.00000000000E+00  0.00000000000E+00  0.10165626878E+03  0.10165626878E+03  0.00000000000E+00 0. -1.
         21   -1    0    0  502  503 -0.00000000000E+00 -0.00000000000E+00 -0.30463873931E+03  0.30463873931E+03  0.00000000000E+00 0. -1.
         -6    2    1    2    0  503  0.45433603199E+02  0.29387188049E+02 -0.12107307219E+03  0.20888404315E+03  0.16138784202E+03 0.  0.
        -24    2    3    3    0    0  0.22478443871E+02 -0.75571108175E+01 -0.13896890399E+03  0.16161702131E+03  0.79027305016E+02 0.  0.
          6    2    1    2  501    0 -0.45433603199E+02 -0.29387188049E+02 -0.81909398339E+02  0.19741096494E+03  0.17127206550E+03 0.  0.
         24    2    5    5    0    0  0.24608298195E+02 -0.57828767506E+02 -0.33071288396E+02  0.10728859049E+03  0.80420127094E+02 0.  0.
          5    1    5    5  501    0 -0.70041901395E+02  0.28441579457E+02 -0.48838109943E+02  0.90122374446E+02  0.47000000000E+01 0. -1.
        -11    1    6    6    0    0  0.25831024332E+02  0.99358114636E+01  0.70076718805E+01  0.28549424385E+02  0.00000000000E+00 0.  1.
         12    1    6    6    0    0 -0.12227261371E+01 -0.67764578969E+02 -0.40078960276E+02  0.78739166105E+02  0.00000000000E+00 0. -1.
         -5    1    3    3    0  503  0.22955159328E+02  0.36944298866E+02  0.17895831795E+02  0.47267021845E+02  0.47000000000E+01 0.  1.
         11    1    4    4    0    0  0.32864378168E+02 -0.32348691386E+02 -0.12045091525E+03  0.12897646364E+03  0.00000000000E+00 0. -1.
        -12    1    4    4    0    0 -0.10385934297E+02  0.24791580568E+02 -0.18517988733E+02  0.32640557670E+02  0.00000000000E+00 0.  1.
</event>
<event>
12    1  0.8297444E-002  0.2072589E+03  0.7818608E-02  0.1144008E+00
         21   -1    0    0  501  502  0.00000000000E+00  0.00000000000E+00  0.66746477197E+03  0.66746477197E+03  0.00000000000E+00 0.  1.
         21   -1    0    0  502  503 -0.00000000000E+00 -0.00000000000E+00 -0.68928712887E+02  0.68928712887E+02  0.00000000000E+00 0.  1.
         -6    2    1    2    0  503  0.10187286402E+03 -0.53867518317E+02  0.20135167049E+03  0.28896149905E+03  0.17226857743E+03 0.  0.
        -24    2    3    3    0    0  0.64741193894E+02 -0.14504271855E+02  0.28944269863E+02  0.10820025351E+03  0.80422186075E+02 0.  0.
          6    2    1    2  501    0 -0.10187286402E+03  0.53867518317E+02  0.39718438859E+03  0.44743198581E+03  0.17076344288E+03 0.  0.
         24    2    5    5    0    0 -0.93746618193E+01  0.48163219790E+01  0.27446003092E+03  0.28604643738E+03  0.79894771574E+02 0.  0.
          5    1    5    5  501    0 -0.92498202204E+02  0.49051196338E+02  0.12272435768E+03  0.16138554842E+03  0.47000000000E+01 0. -1.
        -13    1    6    6    0    0 -0.23709099644E+02  0.74971312889E+01  0.26949746317E+03  0.27064221962E+03  0.00000000000E+00 0.  1.
         14    1    6    6    0    0  0.14334437824E+02 -0.26808093098E+01  0.49625677487E+01  0.15404217765E+02  0.00000000000E+00 0. -1.
         -5    1    3    3    0  503  0.37131670129E+02 -0.39363246462E+02  0.17240740062E+03  0.18076124554E+03  0.47000000000E+01 0.  1.
         13    1    4    4    0    0 -0.15647354175E+02 -0.14177692116E+02 -0.36981326799E+01  0.21436483660E+02  0.00000000000E+00 0. -1.
        -14    1    4    4    0    0  0.80388548069E+02 -0.32657973964E+00  0.32642402543E+02  0.86763769851E+02  0.00000000000E+00 0.  1.
</event>
<event>
12    1  0.8297444E-002  0.2492614E+03  0.7818608E-02  0.1113922E+00
         21   -1    0    0  503  502  0.00000000000E+00  0.00000000000E+00  0.39188362538E+03  0.39188362538E+03  0.00000000000E+00 0. -1.
         21   -1    0    0  501  503 -0.00000000000E+00 -0.00000000000E+00 -0.20847612929E+03  0.20847612929E+03  0.00000000000E+00 0.  1.
          6    2    1    2  501    0 -0.17736506352E+03  0.27230777905E+02 -0.56210860884E+02  0.25460229035E+03  0.17164726723E+03 0.  0.
         24    2    3    3    0    0 -0.74446811461E+02 -0.24363230067E+02 -0.74437986313E+02  0.13794713030E+03  0.85746733089E+02 0.  0.
         -6    2    1    2    0  502  0.17736506352E+03 -0.27230777905E+02  0.23961835698E+03  0.34575746433E+03  0.17300689615E+03 0.  0.
        -24    2    5    5    0    0  0.15143734714E+03  0.52540040537E+01  0.24993763106E+03  0.30267515992E+03  0.78629246123E+02 0.  0.
          5    1    3    3  501    0 -0.10291825206E+03  0.51594007972E+02  0.18227125429E+02  0.11665516005E+03  0.47000000000E+01 0. -1.
        -11    1    4    4    0    0 -0.81505511170E+02  0.65090591019E+01 -0.39545792775E+02  0.90826130203E+02  0.00000000000E+00 0.  1.
         12    1    4    4    0    0  0.70586997094E+01 -0.30872289169E+02 -0.34892193538E+02  0.47121000096E+02  0.00000000000E+00 0. -1.
         -5    1    5    5    0  502  0.25927716375E+02 -0.32484781959E+02 -0.10319274081E+02  0.43082304405E+02  0.47000000000E+01 0.  1.
         11    1    6    6    0    0  0.59808894141E+02  0.46059323341E+00  0.17262142850E+03  0.18268955510E+03  0.00000000000E+00 0. -1.
        -12    1    6    6    0    0  0.91628453001E+02  0.47934108203E+01  0.77316202559E+02  0.11998560482E+03  0.00000000000E+00 0.  1.
</event>
<event>
12    1  0.8297444E-002  0.2559569E+03  0.7818608E-02  0.1109833E+00
         21   -1    0    0  501  502  0.00000000000E+00  0.00000000000E+00  0.38337657826E+03  0.38337657826E+03  0.00000000000E+00 0.  1.
         21   -1    0    0  502  503 -0.00000000000E+00 -0.00000000000E+00 -0.26995658429E+03  0.26995658429E+03  0.00000000000E+00 0. -1.
         -6    2    1    2    0  503 -0.53791978294E+02  0.18087991355E+03  0.25551220673E+03  0.36058050398E+03  0.17064785965E+03 0.  0.
        -24    2    3    3    0    0  0.32723213422E+01  0.15325823713E+03  0.10823565655E+03  0.20016927141E+03  0.69670542787E+02 0.  0.
          6    2    1    2  501    0  0.53791978294E+02 -0.18087991355E+03 -0.14209221277E+03  0.29275265857E+03  0.17292426700E+03 0.  0.
         24    2    5    5    0    0  0.93485773752E+02 -0.10030774311E+03 -0.56523616109E+02  0.16860940752E+03  0.80205859539E+02 0.  0.
          5    1    5    5  501    0 -0.39693795458E+02 -0.80572170440E+02 -0.85568596662E+02  0.12414325105E+03  0.47000000000E+01 0. -1.
        -13    1    6    6    0    0 -0.12507415743E+02 -0.27634039708E+02 -0.10249536775E+02  0.32017629570E+02  0.00000000000E+00 0.  1.
         14    1    6    6    0    0  0.10599318950E+03 -0.72673703405E+02 -0.46274079335E+02  0.13659177795E+03  0.00000000000E+00 0. -1.
         -5    1    3    3    0  503 -0.57064299636E+02  0.27621676428E+02  0.14727655018E+03  0.16041123257E+03  0.47000000000E+01 0.  1.
         13    1    4    4    0    0  0.10533128440E+02 -0.35311949023E+01  0.10393872893E+02  0.15213438989E+02  0.00000000000E+00 0. -1.
        -14    1    4    4    0    0 -0.72608070977E+01  0.15678943203E+03  0.97841783659E+02  0.18495583242E+03  0.00000000000E+00 0.  1.
</event>
<event>
12    1  0.8297444E-002  0.1769866E+03  0.7818608E-02  0.1171137E+00
         21   -1    0    0  503  502  0.00000000000E+00  0.00000000000E+00  0.10951147520E+04  0.10951147520E+04  0.00000000000E+00 0. -1.
         21   -1    0    0  501  503 -0.00000000000E+00 -0.00000000000E+00 -0.33298138602E+02  0.33298138602E+02  0.00000000000E+00 0. -1.
          6    2    1    2  501    0  0.40441812840E+02  0.40286455278E+01  0.31548115197E+03  0.36173556422E+03  0.17225704909E+03 0.  0.
         24    2    3    3    0    0  0.57284872264E+02  0.63516748818E+02  0.16217560668E+03  0.19636566581E+03  0.70303722059E+02 0.  0.
         -6    2    1    2    0  502 -0.40441812840E+02 -0.40286455278E+01  0.74633546148E+03  0.76667732643E+03  0.17066262507E+03 0.  0.
        -24    2    5    5    0    0 -0.78025560058E+02  0.27515067071E+02  0.35821386811E+03  0.37543826256E+03  0.76102869537E+02 0.  0.
          5    1    3    3  501    0 -0.16843059424E+02 -0.59488103291E+02  0.15330554529E+03  0.16536989841E+03  0.47000000000E+01 0. -1.
        -11    1    4    4    0    0  0.48100364209E+01 -0.82099639725E+01  0.60840818096E+02  0.61580395463E+02  0.00000000000E+00 0.  1.
         12    1    4    4    0    0  0.52474835843E+02  0.71726712791E+02  0.10133478858E+03  0.13478527034E+03  0.00000000000E+00 0. -1.
         -5    1    5    5    0  502  0.37583747218E+02 -0.31543712598E+02  0.38812159337E+03  0.39123906387E+03  0.47000000000E+01 0.  1.
         11    1    6    6    0    0 -0.56834007109E+02 -0.20100933603E+02  0.19466778972E+03  0.20378837124E+03  0.00000000000E+00 0. -1.
        -12    1    6    6    0    0 -0.21191552949E+02  0.47616000673E+02  0.16354607839E+03  0.17164989133E+03  0.00000000000E+00 0.  1.
</event>
<event>
12    1  0.8297444E-002  0.1850116E+03  0.7818608E-02  0.1163369E+00
         21   -1    0    0  503  502  0.00000000000E+00  0.00000000000E+00  0.16642080158E+03  0.16642080158E+03  0.00000000000E+00 0. -1.
         21   -1    0    0  501  503 -0.00000000000E+00 -0.00000000000E+00 -0.49874371629E+03  0.49874371629E+03  0.00000000000E+00 0. -1.
          6    2    1    2  501    0  0.21535899826E+02  0.52210335468E+02 -0.42204006313E+03  0.46081135252E+03  0.17618051427E+03 0.  0.
         24    2    3    3    0    0 -0.25008898640E+02  0.85305795806E+02 -0.34452546106E+03  0.36441461350E+03  0.78725430474E+02 0.  0.
         -6    2    1    2    0  502 -0.21535899826E+02 -0.52210335468E+02  0.89717148414E+02  0.20435316535E+03  0.17470356424E+03 0.  0.
        -24    2    5    5    0    0 -0.56671103690E+02 -0.86367401257E+02  0.83544923816E+02  0.15474092845E+03  0.79335103512E+02 0.  0.
          5    1    3    3  501    0  0.46544798466E+02 -0.33095460338E+02 -0.77514602075E+02  0.96396739022E+02  0.47000000000E+01 0. -1.
        -11    1    4    4    0    0 -0.76859547946E+01  0.20441597072E+02 -0.11485428649E+02  0.24674842719E+02  0.00000000000E+00 0.  1.
         12    1    4    4    0    0 -0.17322943845E+02  0.64864198734E+02 -0.33304003241E+03  0.33973977078E+03  0.00000000000E+00 0. -1.
         -5    1    5    5    0  502  0.35135203864E+02  0.34157065789E+02  0.61722245987E+01  0.49612236901E+02  0.47000000000E+01 0.  1.
         13    1    6    6    0    0 -0.13067515689E+01 -0.46770409196E+02  0.71752595870E+02  0.85659872695E+02  0.00000000000E+00 0. -1.
        -14    1    6    6    0    0 -0.55364352121E+02 -0.39596992061E+02  0.11792327946E+02  0.69081055756E+02  0.00000000000E+00 0.  1.
</event>
<event>
12    1  0.8297444E-002  0.1831897E+03  0.7818608E-02  0.1165027E+00
         21   -1    0    0  503  502  0.00000000000E+00  0.00000000000E+00  0.59048006753E+03  0.59048006753E+03  0.00000000000E+00 0. -1.
         21   -1    0    0  501  503 -0.00000000000E+00 -0.00000000000E+00 -0.68550512012E+02  0.68550512012E+02  0.00000000000E+00 0. -1.
          6    2    1    2  501    0 -0.56446541086E+02  0.26955112001E+02  0.12196222744E+03  0.21910746509E+03  0.17094006631E+03 0.  0.
         24    2    3    3    0    0 -0.35017485350E+02  0.78483253493E+02  0.11217314392E+03  0.16225440930E+03  0.79736025504E+02 0.  0.
         -6    2    1    2    0  502  0.56446541086E+02 -0.26955112001E+02  0.39996732808E+03  0.43992311445E+03  0.17217924683E+03 0.  0.
        -24    2    5    5    0    0 -0.19746573933E+02  0.26672961815E+01  0.27998452212E+03  0.29466182723E+03  0.89650533426E+02 0.  0.
          5    1    3    3  501    0 -0.21429055736E+02 -0.51528141493E+02  0.97890835194E+01  0.56853055780E+02  0.47000000000E+01 0. -1.
        -11    1    4    4    0    0 -0.44599933575E+02  0.60605864045E+02  0.11904959472E+03  0.14083689444E+03  0.00000000000E+00 0.  1.
         12    1    4    4    0    0  0.95824482253E+01  0.17877389449E+02 -0.68764508021E+01  0.21417514868E+02  0.00000000000E+00 0. -1.
         -5    1    5    5    0  502  0.76193115019E+02 -0.29622408182E+02  0.11998280595E+03  0.14526128723E+03  0.47000000000E+01 0.  1.
         13    1    6    6    0    0  0.26595556264E+02  0.28331363020E+02  0.11685388008E+03  0.12314551975E+03  0.00000000000E+00 0. -1.
        -14    1    6    6    0    0 -0.46342130196E+02 -0.25664066838E+02  0.16313064204E+03  0.17151630748E+03  0.00000000000E+00 0.  1.
</event>
<event>
12    1  0.8297444E-002  0.2983562E+03  0.7818608E-02  0.1086157E+00
         21   -1    0    0  503  502  0.00000000000E+00  0.00000000000E+00  0.99041585286E+03  0.99041585286E+03  0.00000000000E+00 0.  1.
         21   -1    0    0  501  503 -0.00000000000E+00 -0.00000000000E+00 -0.17759530107E+03  0.17759530107E+03  0.00000000000E+00 0. -1.
          6    2    1    2  501    0  0.23466157940E+03  0.69917106602E+02 -0.42856190073E+01  0.29838694148E+03  0.17047563367E+03 0.  0.
         24    2    3    3    0    0  0.18996107513E+03  0.10818642547E+03  0.21852572452E+02  0.23382711728E+03  0.80050441192E+02 0.  0.
         -6    2    1    2    0  502 -0.23466157940E+03 -0.69917106602E+02  0.81710617080E+03  0.86962421246E+03  0.16920200323E+03 0.  0.
        -24    2    5    5    0    0 -0.10426071682E+03  0.15732108066E+02  0.18836077620E+03  0.22179473323E+03  0.50944336097E+02 0.  0.
          5    1    3    3  501    0  0.44700504269E+02 -0.38269318863E+02 -0.26138191459E+02  0.64559824201E+02  0.47000000000E+01 0. -1.
        -11    1    4    4    0    0  0.13461082501E+03  0.78923179993E+02  0.51812081143E+02  0.16441847311E+03  0.00000000000E+00 0.  1.
         12    1    4    4    0    0  0.55350250123E+02  0.29263245472E+02 -0.29959508691E+02  0.69408644168E+02  0.00000000000E+00 0. -1.
         -5    1    5    5    0  502 -0.13040086258E+03 -0.85649214669E+02  0.62874539459E+03  0.64782947923E+03  0.47000000000E+01 0.  1.
         11    1    6    6    0    0 -0.69200908906E+02  0.26417810398E+02  0.15684518119E+03  0.17345626931E+03  0.00000000000E+00 0. -1.
        -12    1    6    6    0    0 -0.35059807912E+02 -0.10685702332E+02  0.31515595013E+02  0.48338463921E+02  0.00000000000E+00 0.  1.
</event>
<event>
12    1  0.8297444E-002  0.1883087E+03  0.7818608E-02  0.1160910E+00
         21   -1    0    0  503  502  0.00000000000E+00  0.00000000000E+00  0.41384510486E+02  0.41384510486E+02  0.00000000000E+00 0.  1.
         21   -1    0    0  501  503 -0.00000000000E+00 -0.00000000000E+00 -0.97466616805E+03  0.97466616805E+03  0.00000000000E+00 0. -1.
          6    2    1    2  501    0  0.11008065977E+02 -0.68256835035E+02 -0.65195817349E+03  0.67751990192E+03  0.17089056284E+03 0.  0.
         24    2    3    3    0    0  0.20825870644E+02  0.11278397745E+00 -0.10902397494E+03  0.13018962864E+03  0.68039567056E+02 0.  0.
         -6    2    1    2    0  502 -0.11008065977E+02  0.68256835035E+02 -0.28132348408E+03  0.33853077662E+03  0.17515710371E+03 0.  0.
        -24    2    5    5    0    0 -0.50875408109E+02  0.99558394459E+02 -0.21617116819E+03  0.25585002399E+03  0.78924519375E+02 0.  0.
          5    1    3    3  501    0 -0.98178046675E+01 -0.68369619013E+02 -0.54293419855E+03  0.54733027328E+03  0.47000000000E+01 0. -1.
        -13    1    4    4    0    0  0.38463120827E+01 -0.30938978892E+02 -0.28537547743E+02  0.42265898343E+02  0.00000000000E+00 0.  1.
         14    1    4    4    0    0  0.16979558561E+02  0.31051762870E+02 -0.80486427197E+02  0.87923730296E+02  0.00000000000E+00 0. -1.
         -5    1    5    5    0  502  0.39867342133E+02 -0.31301559423E+02 -0.65152315885E+02  0.82680752635E+02  0.47000000000E+01 0.  1.
         13    1    6    6    0    0 -0.29335278689E+02  0.75668673346E+02 -0.73154678220E+02  0.10926075987E+03  0.00000000000E+00 0. -1.
        -14    1    6    6    0    0 -0.21540129420E+02  0.23889721112E+02 -0.14301648997E+03  0.14658926412E+03  0.00000000000E+00 0.  1.
</event>
<event>
12    1  0.8297444E-002  0.2291681E+03  0.7818608E-02  0.1127252E+00
         21   -1    0    0  501  502  0.00000000000E+00  0.00000000000E+00  0.20326384749E+03  0.20326384749E+03  0.00000000000E+00 0. -1.
         21   -1    0    0  502  503 -0.00000000000E+00 -0.00000000000E+00 -0.30539097761E+03  0.30539097761E+03  0.00000000000E+00 0. -1.
         -6    2    1    2    0  503 -0.23367656909E+02  0.15005112019E+03 -0.15101119951E+03  0.27433095368E+03  0.17144008782E+03 0.  0.
        -24    2    3    3    0    0  0.49066569311E+02  0.97162301442E+02 -0.12548810936E+03  0.18096360174E+03  0.71781045693E+02 0.  0.
          6    2    1    2  501    0  0.23367656909E+02 -0.15005112019E+03  0.48884069384E+02  0.23432387142E+03  0.17162936351E+03 0.  0.
         24    2    5    5    0    0  0.20497553064E+02 -0.59712741733E+02 -0.34667117974E+02  0.11114858564E+03  0.84654815660E+02 0.  0.
          5    1    5    5  501    0  0.28701038456E+01 -0.90338378455E+02  0.83551187358E+02  0.12317528578E+03  0.47000000000E+01 0. -1.
        -13    1    6    6    0    0  0.33741278986E+02  0.94980405172E+01 -0.94272661127E+01  0.36298209703E+02  0.00000000000E+00 0.  1.
         14    1    6    6    0    0 -0.13243725922E+02 -0.69210782250E+02 -0.25239851861E+02  0.74850375938E+02  0.00000000000E+00 0. -1.
         -5    1    3    3    0  503 -0.72434226220E+02  0.52888818746E+02 -0.25523090153E+02  0.93367351935E+02  0.47000000000E+01 0.  1.
         13    1    4    4    0    0  0.22672126598E+02  0.18928740135E+02 -0.83017280268E+02  0.88114648900E+02  0.00000000000E+00 0. -1.
        -14    1    4    4    0    0  0.26394442713E+02  0.78233561307E+02 -0.42470829090E+02  0.92848952845E+02  0.00000000000E+00 0.  1.
</event>
<event>
12    1  0.8297444E-002  0.1882724E+03  0.7818608E-02  0.1163721E+00
         21   -1    0    0  503  502  0.00000000000E+00  0.00000000000E+00  0.36475946069E+03  0.36475946069E+03  0.00000000000E+00 0. -1.
         21   -1    0    0  501  503 -0.00000000000E+00 -0.00000000000E+00 -0.91383693971E+02  0.91383693971E+02  0.00000000000E+00 0. -1.
          6    2    1    2  501    0 -0.19345921839E+02 -0.99970005554E+01  0.17629025096E+03  0.25792390613E+03  0.18700878069E+03 0.  0.
         24    2    3    3    0    0 -0.26303236255E+02 -0.25472691802E+02  0.20599762685E+03  0.22339103157E+03  0.78280345269E+02 0.  0.
         -6    2    1    2    0  502  0.19345921839E+02  0.99970005554E+01  0.97085515758E+02  0.19821924853E+03  0.17143823496E+03 0.  0.
        -24    2    5    5    0    0  0.77440674097E+02 -0.14415034914E+02  0.66560782227E+02  0.12804235011E+03  0.75892387326E+02 0.  0.
          5    1    3    3  501    0  0.69573144164E+01  0.15475691246E+02 -0.29707375882E+02  0.34532874558E+02  0.47000000000E+01 0. -1.
        -11    1    4    4    0    0  0.17840034270E+02 -0.40334392500E+01  0.90221813982E+01  0.20394489749E+02  0.00000000000E+00 0.  1.
         12    1    4    4    0    0 -0.44143270525E+02 -0.21439252552E+02  0.19697544545E+03  0.20299654182E+03  0.00000000000E+00 0. -1.
         -5    1    5    5    0  502 -0.58094752258E+02  0.24412035469E+02  0.30524733530E+02  0.70176898426E+02  0.47000000000E+01 0.  1.
         11    1    6    6    0    0  0.58893502077E+02 -0.37956037222E+02  0.20343476999E+02  0.72958634889E+02  0.00000000000E+00 0. -1.
        -12    1    6    6    0    0  0.18547172020E+02  0.23541002308E+02  0.46217305228E+02  0.55083715217E+02  0.00000000000E+00 0.  1.
</event>
<event>
12    1  0.8297444E-002  0.2570407E+03  0.7818608E-02  0.1108995E+00
         21   -1    0    0  501  502  0.00000000000E+00  0.00000000000E+00  0.59557393410E+03  0.59557393410E+03  0.00000000000E+00 0. -1.
         21   -1    0    0  502  503 -0.00000000000E+00 -0.00000000000E+00 -0.11456784769E+03  0.11456784769E+03  0.00000000000E+00 0. -1.
         -6    2    1    2    0  503 -0.18941328665E+03 -0.25020355768E+02  0.17598612492E+03  0.31151411769E+03  0.17194917269E+03 0.  0.
        -24    2    3    3    0    0 -0.80517734686E+02 -0.31049887120E+02  0.21011513565E+02  0.12195194674E+03  0.83567891701E+02 0.  0.
          6    2    1    2  501    0  0.18941328665E+03  0.25020355768E+02  0.30501996149E+03  0.39862766410E+03  0.17135759778E+03 0.  0.
         24    2    5    5    0    0  0.17786142066E+02 -0.24390751669E+01  0.99037019117E+02  0.12907069488E+03  0.80799858817E+02 0.  0.
          5    1    5    5  501    0  0.17162714459E+03  0.27459430935E+02  0.20598294237E+03  0.26955696922E+03  0.47000000000E+01 0. -1.
        -13    1    6    6    0    0  0.38896189980E+01  0.36425813786E+02  0.68664639882E+02  0.77825457377E+02  0.00000000000E+00 0.  1.
         14    1    6    6    0    0  0.13896523068E+02 -0.38864888952E+02  0.30372379235E+02  0.51245237506E+02  0.00000000000E+00 0. -1.
         -5    1    3    3    0  503 -0.10889555197E+03  0.60295313524E+01  0.15497461136E+03  0.18956217094E+03  0.47000000000E+01 0.  1.
         11    1    4    4    0    0 -0.25968020274E+02 -0.51193671271E+02  0.27109858802E+02  0.63482867763E+02  0.00000000000E+00 0. -1.
        -12    1    4    4    0    0 -0.54549714412E+02  0.20143784151E+02 -0.60983452366E+01  0.58469078982E+02  0.00000000000E+00 0.  1.
</event>
<event>
12    1  0.8297444E-002  0.2255195E+03  0.7818608E-02  0.1130112E+00
         21   -1    0    0  501  502  0.00000000000E+00  0.00000000000E+00  0.45533250553E+03  0.45533250553E+03  0.00000000000E+00 0. -1.
         21   -1    0    0  502  503 -0.00000000000E+00 -0.00000000000E+00 -0.21746431804E+03  0.21746431804E+03  0.00000000000E+00 0. -1.
         -6    2    1    2    0  503  0.14079525915E+03 -0.36597903157E+02 -0.11672009418E+03  0.25256841955E+03  0.17030711863E+03 0.  0.
        -24    2    3    3    0    0  0.20481631272E+02  0.70358639221E+01 -0.89907323337E+02  0.12172389592E+03  0.79147832874E+02 0.  0.
          6    2    1    2  501    0 -0.14079525915E+03  0.36597903157E+02  0.35458828166E+03  0.42022840402E+03  0.17232629091E+03 0.  0.
         24    2    5    5    0    0 -0.82732759893E+02  0.12214665634E+02  0.86791707402E+02  0.14508681996E+03  0.80768045889E+02 0.  0.
          5    1    5    5  501    0 -0.58062499259E+02  0.24383237522E+02  0.26779657426E+03  0.27514158406E+03  0.47000000000E+01 0. -1.
        -13    1    6    6    0    0  0.12828763871E+02  0.81013930575E+01 -0.10663642286E+01  0.15210091538E+02  0.00000000000E+00 0.  1.
         14    1    6    6    0    0 -0.95561523764E+02  0.41132725768E+01  0.87858071630E+02  0.12987672842E+03  0.00000000000E+00 0. -1.
         -5    1    3    3    0  503  0.12031362788E+03 -0.43633767079E+02 -0.26812770839E+02  0.13084452363E+03  0.47000000000E+01 0.  1.
         13    1    4    4    0    0  0.34105383178E+01 -0.23753893244E+02 -0.82271287964E+02  0.85699731850E+02  0.00000000000E+00 0. -1.
        -14    1    4    4    0    0  0.17071092954E+02  0.30789757166E+02 -0.76360353728E+01  0.36024164074E+02  0.00000000000E+00 0.  1.
</event>
<event>
12    1  0.8297444E-002  0.1971889E+03  0.7818608E-02  0.1152843E+00
         21   -1    0    0  501  502  0.00000000000E+00  0.00000000000E+00  0.99386214878E+03  0.99386214878E+03  0.00000000000E+00 0. -1.
         21   -1    0    0  502  503 -0.00000000000E+00 -0.00000000000E+00 -0.18874047767E+03  0.18874047767E+03  0.00000000000E+00 0. -1.
         -6    2    1    2    0  503 -0.48636106262E+02  0.82321937731E+02 -0.12434730364E+03  0.23312169657E+03  0.17245608492E+03 0.  0.
        -24    2    3    3    0    0  0.92525998450E+01 -0.17269456164E+02 -0.60638215287E+02  0.10140045314E+03  0.78874672889E+02 0.  0.
          6    2    1    2  501    0  0.48636106262E+02 -0.82321937731E+02  0.92946897475E+03  0.94948092987E+03  0.16869821844E+03 0.  0.
         24    2    5    5    0    0  0.22388956027E+02 -0.53174916404E+02  0.25265780081E+03  0.27151786530E+03  0.80976229740E+02 0.  0.
          5    1    5    5  501    0  0.26247150235E+02 -0.29147021326E+02  0.67681117395E+03  0.67796306457E+03  0.47000000000E+01 0. -1.
        -13    1    6    6    0    0  0.18462976286E+00 -0.44621063594E+02  0.24086059728E+03  0.24495897764E+03  0.00000000000E+00 0.  1.
         14    1    6    6    0    0  0.22204326264E+02 -0.85538528099E+01  0.11797203525E+02  0.26558887660E+02  0.00000000000E+00 0. -1.
         -5    1    3    3    0  503 -0.57888706107E+02  0.99591393895E+02 -0.63709088356E+02  0.13172124343E+03  0.47000000000E+01 0.  1.
         13    1    4    4    0    0  0.58314126600E+01 -0.41184034542E+02 -0.64686438925E+02  0.76905561929E+02  0.00000000000E+00 0. -1.
        -14    1    4    4    0    0  0.34211871850E+01  0.23914578378E+02  0.40482236378E+01  0.24494891210E+02  0.00000000000E+00 0.  1.
</event>
<event>
12    1  0.8297444E-002  0.1750720E+03  0.7818608E-02  0.1172772E+00
         21   -1    0    0  503  502  0.00000000000E+00  0.00000000000E+00  0.41528694025E+03  0.41528694025E+03  0.00000000000E+00 0. -1.
         21   -1    0    0  501  503 -0.00000000000E+00 -0.00000000000E+00 -0.76431930433E+02  0.76431930433E+02  0.00000000000E+00 0. -1.
          6    2    1    2  501    0 -0.30589693359E+02  0.11502765063E+02  0.12202604366E+03  0.21303445680E+03  0.17153798853E+03 0.  0.
         24    2    3    3    0    0 -0.66875476466E+02  0.13428431422E+02  0.14224880335E+03  0.17118453140E+03  0.66458781301E+02 0.  0.
         -6    2    1    2    0  502  0.30589693359E+02 -0.11502765063E+02  0.21682896616E+03  0.27868441388E+03  0.17199464826E+03 0.  0.
        -24    2    5    5    0    0  0.21388752359E+02  0.60429401870E+02  0.14341663957E+03  0.17538700999E+03  0.77994098689E+02 0.  0.
          5    1    3    3  501    0  0.36285783107E+02 -0.19256663591E+01 -0.20222759695E+02  0.41849925403E+02  0.47000000000E+01 0. -1.
        -13    1    4    4    0    0 -0.69614802446E+02 -0.32309017951E+01  0.77297247699E+02  0.10407460760E+03  0.00000000000E+00 0.  1.
         14    1    4    4    0    0  0.27393259797E+01  0.16659333217E+02  0.64951555652E+02  0.67109923794E+02  0.00000000000E+00 0. -1.
         -5    1    5    5    0  502  0.92009410003E+01 -0.71932166933E+02  0.73412326588E+02  0.10329740389E+03  0.47000000000E+01 0.  1.
         11    1    6    6    0    0 -0.25027377726E+02  0.44496014730E+02  0.84323476293E+02  0.98573392033E+02  0.00000000000E+00 0. -1.
        -12    1    6    6    0    0  0.46416130085E+02  0.15933387140E+02  0.59093163276E+02  0.76813617958E+02  0.00000000000E+00 0.  1.
</event>
<event>
12    1  0.8297444E-002  0.2142592E+03  0.7818608E-02  0.1138343E+00
         21   -1    0    0  503  502  0.00000000000E+00  0.00000000000E+00  0.35338578552E+03  0.35338578552E+03  0.00000000000E+00 0.  1.
         21   -1    0    0  501  503 -0.00000000000E+00 -0.00000000000E+00 -0.27989321598E+03  0.27989321598E+03  0.00000000000E+00 0. -1.
          6    2    1    2  501    0  0.65442675305E+02 -0.10746485691E+03 -0.19528029124E+03  0.28989893201E+03  0.17342306482E+03 0.  0.
         24    2    3    3    0    0  0.14773595704E+02 -0.13262125884E+03 -0.15905848379E+03  0.22256165021E+03  0.80171250767E+02 0.  0.
         -6    2    1    2    0  502 -0.65442675305E+02  0.10746485691E+03  0.26877286078E+03  0.34338006949E+03  0.17274137376E+03 0.  0.
        -24    2    5    5    0    0 -0.10484036440E+03  0.58855884854E+02  0.22238275565E+03  0.26534711540E+03  0.80619380099E+02 0.  0.
          5    1    3    3  501    0  0.50669079601E+02  0.25156401929E+02 -0.36221807444E+02  0.67337281799E+02  0.47000000000E+01 0. -1.
        -11    1    4    4    0    0 -0.30312812341E+02 -0.39454398825E+02 -0.34170040757E+02  0.60358163192E+02  0.00000000000E+00 0.  1.
         12    1    4    4    0    0  0.45086408044E+02 -0.93166860019E+02 -0.12488844304E+03  0.16220348702E+03  0.00000000000E+00 0. -1.
         -5    1    5    5    0  502  0.39397689094E+02  0.48608972061E+02  0.46390105127E+02  0.78032954092E+02  0.47000000000E+01 0.  1.
         11    1    6    6    0    0 -0.85532534693E+01 -0.18460454204E+02  0.42985238419E+02  0.47557094490E+02  0.00000000000E+00 0. -1.
        -12    1    6    6    0    0 -0.96287110929E+02  0.77316339058E+02  0.17939751723E+03  0.21779002091E+03  0.00000000000E+00 0.  1.
</event>
<event>
12    1  0.8297444E-002  0.2291295E+03  0.7818608E-02  0.1127753E+00
         21   -1    0    0  501  502  0.00000000000E+00  0.00000000000E+00  0.71254448059E+02  0.71254448059E+02  0.00000000000E+00 0.  1.
         21   -1    0    0  502  503 -0.00000000000E+00 -0.00000000000E+00 -0.78532916893E+03  0.78532916893E+03  0.00000000000E+00 0.  1.
         -6    2    1    2    0  503  0.34565959644E+02  0.14344687666E+03 -0.47090588362E+03  0.52247077693E+03  0.17161453764E+03 0.  0.
        -24    2    3    3    0    0 -0.15895475326E+02  0.38534805118E+02 -0.14708653064E+03  0.17832841898E+03  0.91809477603E+02 0.  0.
          6    2    1    2  501    0 -0.34565959644E+02 -0.14344687666E+03 -0.24316883724E+03  0.33411284005E+03  0.17529544915E+03 0.  0.
         24    2    5    5    0    0  0.11446942846E+02 -0.86533358884E+01 -0.53393077146E+02  0.96787293703E+02  0.79442097232E+02 0.  0.
          5    1    5    5  501    0 -0.46012902490E+02 -0.13479354077E+03 -0.18977576010E+03  0.23732554635E+03  0.47000000000E+01 0. -1.
        -11    1    6    6    0    0 -0.17301233559E+02 -0.31856381761E+02 -0.60775062502E+01  0.36757282595E+02  0.00000000000E+00 0.  1.
         12    1    6    6    0    0  0.28748176405E+02  0.23203045873E+02 -0.47315570896E+02  0.60030011108E+02  0.00000000000E+00 0. -1.
         -5    1    3    3    0  503  0.50461434971E+02  0.10491207154E+03 -0.32381935298E+03  0.34414235796E+03  0.47000000000E+01 0.  1.
         11    1    4    4    0    0  0.79806973401E+01 -0.42193973797E+01  0.10184761937E+02  0.13609710503E+02  0.00000000000E+00 0. -1.
        -12    1    4    4    0    0 -0.23876172666E+02  0.42754202497E+02 -0.15727129258E+03  0.16471870847E+03  0.00000000000E+00 0.  1.
</event>
<event>
12    1  0.8297444E-002  0.1885563E+03  0.7818608E-02  0.1162006E+00
         21   -1    0    0  501  502  0.00000000000E+00  0.00000000000E+00  0.25049029555E+03  0.25049029555E+03  0.00000000000E+00 0. -1.
         21   -1    0    0  502  503 -0.00000000000E+00 -0.00000000000E+00 -0.33930964802E+03  0.33930964802E+03  0.00000000000E+00 0. -1.
         -6    2    1    2    0  503 -0.47562046471E+02 -0.15068663469E+02 -0.27376139504E+03  0.33241358454E+03  0.18183585150E+03 0.  0.
        -24    2    3    3    0    0 -0.62364125036E+02 -0.19609907330E+02 -0.62131997789E+02  0.12016652047E+03  0.79408909677E+02 0.  0.
          6    2    1    2  501    0  0.47562046471E+02  0.15068663469E+02  0.18494204257E+03  0.25738635903E+03  0.17191557760E+03 0.  0.
         24    2    5    5    0    0  0.84740231248E+02  0.42413861760E+02  0.91817377259E+02  0.15334660421E+03  0.78133909382E+02 0.  0.
          5    1    5    5  501    0 -0.37178184776E+02 -0.27345198291E+02  0.93124665315E+02  0.10403975482E+03  0.47000000000E+01 0. -1.
        -11    1    6    6    0    0  0.41330149509E+02  0.34661608139E+02  0.28091967596E+01  0.54013886396E+02  0.00000000000E+00 0.  1.
         12    1    6    6    0    0  0.43410081739E+02  0.77522536208E+01  0.89008180500E+02  0.99332717816E+02  0.00000000000E+00 0. -1.
         -5    1    3    3    0  503  0.14802078565E+02  0.45412438606E+01 -0.21162939725E+03  0.21224706407E+03  0.47000000000E+01 0.  1.
         11    1    4    4    0    0 -0.53067745292E+02 -0.48865828195E+02 -0.44682381332E+02  0.84856172180E+02  0.00000000000E+00 0. -1.
        -12    1    4    4    0    0 -0.92963797445E+01  0.29255920865E+02 -0.17449616457E+02  0.35310348293E+02  0.00000000000E+00 0.  1.
</event>
<event>
12    1  0.8297444E-002  0.2112042E+03  0.7818608E-02  0.1142072E+00
         21   -1    0    0  503  502  0.00000000000E+00  0.00000000000E+00  0.53558072357E+02  0.53558072357E+02  0.00000000000E+00 0.  1.
         21   -1    0    0  501  503 -0.00000000000E+00 -0.00000000000E+00 -0.16549690217E+04  0.16549690217E+04  0.00000000000E+00 0.  1.
          6    2    1    2  501    0 -0.83967467845E+02 -0.72591998851E+02 -0.14062482262E+04  0.14209584586E+04  0.17108107260E+03 0.  0.
         24    2    3    3    0    0 -0.74190388531E+02 -0.11069381919E+03 -0.12543018484E+04  0.12639325635E+04  0.80591953047E+02 0.  0.
         -6    2    1    2    0  502  0.83967467845E+02  0.72591998851E+02 -0.19516272316E+03  0.28756863548E+03  0.17968610867E+03 0.  0.
        -24    2    5    5    0    0  0.51860716374E+02  0.95871828124E+02 -0.61595675459E+02  0.14815902257E+03  0.79222013368E+02 0.  0.
          5    1    3    3  501    0 -0.97770793145E+01  0.38101820341E+02 -0.15194637776E+03  0.15702589502E+03  0.47000000000E+01 0. -1.
        -11    1    4    4    0    0 -0.47660634265E+02 -0.11840015773E+03 -0.99095220145E+03  0.99913782782E+03  0.00000000000E+00 0.  1.
         12    1    4    4    0    0 -0.26529754266E+02  0.77063385358E+01 -0.26334964696E+03  0.26479473573E+03  0.00000000000E+00 0. -1.
         -5    1    5    5    0  502  0.32106751471E+02 -0.23279829273E+02 -0.13356704770E+03  0.13940961292E+03  0.47000000000E+01 0.  1.
         13    1    6    6    0    0  0.28977213461E+01  0.68817037486E+02 -0.61318452839E+02  0.92217862131E+02  0.00000000000E+00 0. -1.
        -14    1    6    6    0    0  0.48962995028E+02  0.27054790638E+02 -0.27722261923E+00  0.55941160436E+02  0.00000000000E+00 0.  1.
</event>
<event>
12    1  0.8297444E-002  0.1933389E+03  0.7818608E-02  0.1158975E+00
         21   -1    0    0  501  502  0.00000000000E+00  0.00000000000E+00  0.11042839879E+03  0.11042839879E+03  0.00000000000E+00 0.  1.
         21   -1    0    0  502  503 -0.00000000000E+00 -0.00000000000E+00 -0.70238961136E+03  0.70238961136E+03  0.00000000000E+00 0. -1.
         -6    2    1    2    0  503 -0.53807004992E+02  0.26547723512E+02 -0.60404471141E+03  0.63423177382E+03  0.18379323745E+03 0.  0.
        -24    2    3    3    0    0 -0.51955748295E+02  0.62165276162E+02 -0.58054762351E+03  0.59126387478E+03  0.77417731302E+02 0.  0.
          6    2    1    2  501    0  0.53807004992E+02 -0.26547723512E+02  0.12083498835E+02  0.17858623633E+03  0.16777084804E+03 0.  0.
         24    2    5    5    0    0 -0.81074145490E+01  0.53299557893E+01 -0.42568808488E+02  0.89937793135E+02  0.78629285756E+02 0.  0.
          5    1    5    5  501    0  0.61914419541E+02 -0.31877679301E+02  0.54652307323E+02  0.88648443193E+02  0.47000000000E+01 0. -1.
        -11    1    6    6    0    0 -0.30292629397E+02 -0.26269431277E+02 -0.26821800485E+02  0.48240391755E+02  0.00000000000E+00 0.  1.
         12    1    6    6    0    0  0.22185214848E+02  0.31599387066E+02 -0.15747008002E+02  0.41697401380E+02  0.00000000000E+00 0. -1.
         -5    1    3    3    0  503 -0.18512566972E+01 -0.35617552650E+02 -0.23497087904E+02  0.42967899043E+02  0.47000000000E+01 0.  1.
         11    1    4    4    0    0  0.23179710031E+00  0.25311006238E+02 -0.37873461613E+03  0.37957951765E+03  0.00000000000E+00 0. -1.
        -12    1    4    4    0    0 -0.52187545395E+02  0.36854269924E+02 -0.20181300738E+03  0.21168435713E+03  0.00000000000E+00 0.  1.
</event>
<event>
12    1  0.8297444E-002  0.1761952E+03  0.7818608E-02  0.1174290E+00
         21   -1    0    0  501  502  0.00000000000E+00  0.00000000000E+00  0.61807574188E+02  0.61807574188E+02  0.00000000000E+00 0.  1.
         21   -1    0    0  502  503 -0.00000000000E+00 -0.00000000000E+00 -0.53116467844E+03  0.53116467844E+03  0.00000000000E+00 0.  1.
         -6    2    1    2    0  503 -0.24526932660E+02 -0.21004206937E+02 -0.32685218742E+03  0.36636160430E+03  0.16231366409E+03 0.  0.
        -24    2    3    3    0    0 -0.61585035332E+02  0.24940128582E+02 -0.17312203331E+03  0.20162170257E+03  0.79153938237E+02 0.  0.
          6    2    1    2  501    0  0.24526932660E+02  0.21004206937E+02 -0.14250491683E+03  0.22661064833E+03  0.17321081802E+03 0.  0.
         24    2    5    5    0    0  0.36554600019E+02  0.53938067889E+02 -0.15821368485E+03  0.18790458457E+03  0.77659570429E+02 0.  0.
          5    1    5    5  501    0 -0.12027667359E+02 -0.32933860952E+02  0.15708768014E+02  0.38706063760E+02  0.47000000000E+01 0. -1.
        -13    1    6    6    0    0 -0.16567303907E+02  0.40091733156E+02 -0.47499203733E+02  0.64327264682E+02  0.00000000000E+00 0.  1.
         14    1    6    6    0    0  0.53121903926E+02  0.13846334733E+02 -0.11071448111E+03  0.12357731989E+03  0.00000000000E+00 0. -1.
         -5    1    3    3    0  503  0.37058102671E+02 -0.45944335519E+02 -0.15373015411E+03  0.16473990173E+03  0.47000000000E+01 0.  1.
         11    1    4    4    0    0 -0.59977457249E+02  0.47163693304E+02 -0.15551114631E+03  0.17322074348E+03  0.00000000000E+00 0. -1.
        -12    1    4    4    0    0 -0.16075780823E+01 -0.22223564722E+02 -0.17610886994E+02  0.28400959085E+02  0.00000000000E+00 0.  1.
</event>
<event>
12    1  0.8297444E-002  0.1728189E+03  0.7818608E-02  0.1175138E+00
         21   -1    0    0  503  502  0.00000000000E+00  0.00000000000E+00  0.53913323635E+03  0.53913323635E+03  0.00000000000E+00 0.  1.
         21   -1    0    0  501  503 -0.00000000000E+00 -0.00000000000E+00 -0.22379764370E+03  0.22379764370E+03  0.00000000000E+00 0.  1.
          6    2    1    2  501    0 -0.12803322509E+02 -0.18226084997E+02 -0.17339003607E+03  0.24480699340E+03  0.17137749027E+03 0.  0.
         24    2    3    3    0    0 -0.35042907961E+01  0.31573775521E+02 -0.23511878699E+02  0.86528598940E+02  0.76975363851E+02 0.  0.
         -6    2    1    2    0  502  0.12803322509E+02  0.18226084997E+02  0.48872562872E+03  0.51812388664E+03  0.17059749853E+03 0.  0.
        -24    2    5    5    0    0  0.81609431706E+01  0.59443531433E+00  0.95095148754E+02  0.12404334727E+03  0.79225692416E+02 0.  0.
          5    1    3    3  501    0 -0.92990317127E+01 -0.49799860518E+02 -0.14987815737E+03  0.15827839446E+03  0.47000000000E+01 0. -1.
        -11    1    4    4    0    0 -0.28007489066E+02  0.39563957358E+02 -0.33461627360E+02  0.58901669511E+02  0.00000000000E+00 0.  1.
         12    1    4    4    0    0  0.24503198270E+02 -0.79901818379E+01  0.99497486618E+01  0.27626929429E+02  0.00000000000E+00 0. -1.
         -5    1    5    5    0  502  0.46423793382E+01  0.17631649683E+02  0.39363047996E+03  0.39408053937E+03  0.47000000000E+01 0.  1.
         11    1    6    6    0    0  0.16595543427E+02 -0.27148523142E+02  0.88858113311E+02  0.94383360141E+02  0.00000000000E+00 0. -1.
        -12    1    6    6    0    0 -0.84346002562E+01  0.27742958456E+02  0.62370354436E+01  0.29659987129E+02  0.00000000000E+00 0.  1.
</event>
<event>
12    1  0.8297444E-002  0.1905286E+03  0.7818608E-02  0.1158158E+00
         21   -1    0    0  501  502  0.00000000000E+00  0.00000000000E+00  0.35563566603E+03  0.35563566603E+03  0.00000000000E+00 0.  1.
         21   -1    0    0  502  503 -0.00000000000E+00 -0.00000000000E+00 -0.12391702375E+03  0.12391702375E+03  0.00000000000E+00 0.  1.
         -6    2    1    2    0  503 -0.66276039280E+02  0.46280462554E+02  0.21727689793E+03  0.28847756267E+03  0.17168476692E+03 0.  0.
        -24    2    3    3    0    0 -0.49512569248E+02  0.57411018430E+02  0.51620973373E+02  0.12153781742E+03  0.79744571107E+02 0.  0.
          6    2    1    2  501    0  0.66276039280E+02 -0.46280462554E+02  0.14441744355E+02  0.19107512712E+03  0.17253041942E+03 0.  0.
         24    2    5    5    0    0  0.96957613058E+02  0.86561397748E+01  0.21336559449E+02  0.12760058324E+03  0.79692864101E+02 0.  0.
          5    1    5    5  501    0 -0.30681573778E+02 -0.54936602329E+02 -0.68948150937E+01  0.63474543875E+02  0.47000000000E+01 0. -1.
        -11    1    6    6    0    0  0.70492514602E+02 -0.31676026852E+02  0.89728676953E+01  0.77801527278E+02  0.00000000000E+00 0.  1.
         12    1    6    6    0    0  0.26465098456E+02  0.40332166627E+02  0.12363691754E+02  0.49799055964E+02  0.00000000000E+00 0. -1.
         -5    1    3    3    0  503 -0.16763470032E+02 -0.11130555876E+02  0.16565592456E+03  0.16693974524E+03  0.47000000000E+01 0.  1.
         11    1    4    4    0    0  0.58039571804E+00  0.10081617172E+01 -0.18504988529E+02  0.18541516920E+02  0.00000000000E+00 0. -1.
        -12    1    4    4    0    0 -0.50092964966E+02  0.56402856712E+02  0.70125961902E+02  0.10299630050E+03  0.00000000000E+00 0.  1.
</event>
<event>
12    1  0.8297444E-002  0.1782614E+03  0.7818608E-02  0.1170526E+00
         21   -1    0    0  501  502  0.00000000000E+00  0.00000000000E+00  0.13195425839E+03  0.13195425839E+03  0.00000000000E+00 0.  1.
         21   -1    0    0  502  503 -0.00000000000E+00 -0.00000000000E+00 -0.25584068172E+03  0.25584068172E+03  0.00000000000E+00 0.  1.
         -6    2    1    2    0  503  0.68735272064E+01  0.18299477723E+02 -0.11628354161E+03  0.20937151710E+03  0.17300998197E+03 0.  0.
        -24    2    3    3    0    0  0.11601723739E+01 -0.38974433872E+02 -0.11288355700E+02  0.89542378583E+02  0.79812643687E+02 0.  0.
          6    2    1    2  501    0 -0.68735272064E+01 -0.18299477723E+02 -0.76028817142E+01  0.17842342301E+03  0.17718633640E+03 0.  0.
         24    2    5    5    0    0  0.10277653263E+02 -0.13172457019E+02  0.63275735794E+02  0.10516826788E+03  0.82324978281E+02 0.  0.
          5    1    5    5  501    0 -0.17151180470E+02 -0.51270207035E+01 -0.70878617508E+02  0.73255155127E+02  0.47000000000E+01 0. -1.
        -13    1    6    6    0    0 -0.27202904055E+02 -0.82296631155E+01  0.60998769211E+02  0.67294689161E+02  0.00000000000E+00 0.  1.
         14    1    6    6    0    0  0.37480557318E+02 -0.49427939035E+01  0.22769665828E+01  0.37873578723E+02  0.00000000000E+00 0. -1.
         -5    1    3    3    0  503  0.57133548325E+01  0.57273911595E+02 -0.10499518591E+03  0.11982913852E+03  0.47000000000E+01 0.  1.
         11    1    4    4    0    0 -0.33667285127E+02  0.33359733760E+01 -0.71964620717E+01  0.34589071576E+02  0.00000000000E+00 0. -1.
        -12    1    4    4    0    0  0.34827457501E+02 -0.42310407248E+02 -0.40918936282E+01  0.54953307006E+02  0.00000000000E+00 0.  1.
</event>
<event>
12    1  0.8297444E-002  0.1906151E+03  0.7818608E-02  0.1159077E+00
         21   -1    0    0  501  502  0.00000000000E+00  0.00000000000E+00  0.55587210902E+02  0.55587210902E+02  0.00000000000E+00 0.  1.
         21   -1    0    0  502  503 -0.00000000000E+00 -0.00000000000E+00 -0.73969613290E+03  0.73969613290E+03  0.00000000000E+00 0. -1.
         -6    2    1    2    0  503  0.22897308131E+02  0.80169402967E+02 -0.48679647171E+03  0.52093629398E+03  0.16568765080E+03 0.  0.
        -24    2    3    3    0    0  0.74975953580E+02  0.50596706124E+02 -0.24899749428E+03  0.27566670072E+03  0.76229636263E+02 0.  0.
          6    2    1    2  501    0 -0.22897308131E+02 -0.80169402967E+02 -0.19731245030E+03  0.27434704983E+03  0.17141377079E+03 0.  0.
         24    2    5    5    0    0 -0.46380847041E+02 -0.33903371825E+02 -0.32095516846E+02  0.10111094696E+03  0.76763792248E+02 0.  0.
          5    1    5    5  501    0  0.23483538910E+02 -0.46266031142E+02 -0.16521693345E+03  0.17323610287E+03  0.47000000000E+01 0. -1.
        -11    1    6    6    0    0 -0.14675155026E+01 -0.37902042168E+02  0.10210369246E+02  0.39280657357E+02  0.00000000000E+00 0.  1.
         12    1    6    6    0    0 -0.44913331539E+02  0.39986703433E+01 -0.42305886092E+02  0.61830289603E+02  0.00000000000E+00 0. -1.
         -5    1    3    3    0  503 -0.52078645449E+02  0.29572696843E+02 -0.23779897743E+03  0.24526959326E+03  0.47000000000E+01 0.  1.
         13    1    4    4    0    0  0.49546591715E+02  0.41065652257E+02 -0.23769414294E+03  0.24625141245E+03  0.00000000000E+00 0. -1.
        -14    1    4    4    0    0  0.25429361865E+02  0.95310538666E+01 -0.11303351338E+02  0.29415288272E+02  0.00000000000E+00 0.  1.
</event>
<event>
12    1  0.8297444E-002  0.2152911E+03  0.7818608E-02  0.1137494E+00
         21   -1    0    0  501  502  0.00000000000E+00  0.00000000000E+00  0.56704790084E+02  0.56704790084E+02  0.00000000000E+00 0. -1.
         21   -1    0    0  502  503 -0.00000000000E+00 -0.00000000000E+00 -0.98116791298E+03  0.98116791298E+03  0.00000000000E+00 0. -1.
         -6    2    1    2    0  503  0.11874298926E+03  0.54089674747E+02 -0.67512840669E+03  0.70862445028E+03  0.17124443233E+03 0.  0.
        -24    2    3    3    0    0  0.10655009083E+03 -0.24520666777E+02 -0.40430716357E+03  0.42632232792E+03  0.79575497553E+02 0.  0.
          6    2    1    2  501    0 -0.11874298926E+03 -0.54089674747E+02 -0.24933471621E+03  0.32924825278E+03  0.17091231917E+03 0.  0.
         24    2    5    5    0    0 -0.44612003373E+02  0.35596119338E+02 -0.88603646217E+02  0.13076522684E+03  0.77405580355E+02 0.  0.
          5    1    5    5  501    0 -0.74130985883E+02 -0.89685794086E+02 -0.16073106999E+03  0.19848302595E+03  0.47000000000E+01 0. -1.
        -11    1    6    6    0    0  0.19034608491E+02  0.25027160841E+02 -0.33154241383E+02  0.45693312660E+02  0.00000000000E+00 0.  1.
         12    1    6    6    0    0 -0.63646611864E+02  0.10568958497E+02 -0.55449404834E+02  0.85071914178E+02  0.00000000000E+00 0. -1.
         -5    1    3    3    0  503  0.12192898428E+02  0.78610341525E+02 -0.27082124312E+03  0.28230212236E+03  0.47000000000E+01 0.  1.
         13    1    4    4    0    0  0.73486938949E+02  0.19211145473E+02 -0.28625635118E+03  0.29616228135E+03  0.00000000000E+00 0. -1.
        -14    1    4    4    0    0  0.33063151879E+02 -0.43731812251E+02 -0.11805081240E+03  0.13016004657E+03  0.00000000000E+00 0.  1.
</event>
<event>
12    1  0.8297444E-002  0.1857356E+03  0.7818608E-02  0.1162620E+00
         21   -1    0    0  503  502  0.00000000000E+00  0.00000000000E+00  0.12469620944E+03  0.12469620944E+03  0.00000000000E+00 0. -1.
         21   -1    0    0  501  503 -0.00000000000E+00 -0.00000000000E+00 -0.48137901098E+03  0.48137901098E+03  0.00000000000E+00 0. -1.
          6    2    1    2  501    0  0.76933104439E+01  0.67248521483E+02 -0.37644746211E+03  0.41929100069E+03  0.17178678897E+03 0.  0.
         24    2    3    3    0    0  0.41398128373E+02 -0.39691867305E+01 -0.11491080642E+03  0.14610335642E+03  0.80075825619E+02 0.  0.
         -6    2    1    2    0  502 -0.76933104439E+01 -0.67248521483E+02  0.19764660574E+02  0.18678421973E+03  0.17296286383E+03 0.  0.
        -24    2    5    5    0    0  0.52400180529E+02 -0.11675672467E+02 -0.15984802852E+02  0.97343270830E+02  0.79612173734E+02 0.  0.
          5    1    3    3  501    0 -0.33704817929E+02  0.71217708214E+02 -0.26153665569E+03  0.27318764428E+03  0.47000000000E+01 0. -1.
        -13    1    4    4    0    0  0.14170588265E+02 -0.24132856062E+01  0.10474719934E+02  0.17786210301E+02  0.00000000000E+00 0.  1.
         14    1    4    4    0    0  0.27227540109E+02 -0.15559011243E+01 -0.12538552635E+03  0.12831714612E+03  0.00000000000E+00 0. -1.
         -5    1    5    5    0  502 -0.60093490973E+02 -0.55572849016E+02  0.35749463426E+02  0.89440948901E+02  0.47000000000E+01 0.  1.
         11    1    6    6    0    0  0.69566166110E+01 -0.37659769289E+02 -0.22774418145E+02  0.44557006850E+02  0.00000000000E+00 0. -1.
        -12    1    6    6    0    0  0.45443563918E+02  0.25984096822E+02  0.67896152930E+01  0.52786263981E+02  0.00000000000E+00 0.  1.
</event>
<event>
12    1  0.8297444E-002  0.1968641E+03  0.7818608E-02  0.1152985E+00
         21   -1    0    0  503  502  0.00000000000E+00  0.00000000000E+00  0.25829583232E+03  0.25829583232E+03  0.00000000000E+00 0. -1.
         21   -1    0    0  501  503 -0.00000000000E+00 -0.00000000000E+00 -0.36392656513E+03  0.36392656513E+03  0.00000000000E+00 0. -1.
          6    2    1    2  501    0  0.88450817171E+02 -0.13395052045E+02 -0.29229009990E+03  0.35093437223E+03  0.17239041922E+03 0.  0.
         24    2    3    3    0    0  0.31968014765E+02 -0.65631240430E+02 -0.11676191232E+03  0.15922844906E+03  0.79943362034E+02 0.  0.
         -6    2    1    2    0  502 -0.88450817171E+02  0.13395052045E+02  0.18665936708E+03  0.27128802522E+03  0.17536390402E+03 0.  0.
        -24    2    5    5    0    0 -0.82980600706E+02 -0.56079071669E+02  0.10279178102E+03  0.16214390433E+03  0.75457624488E+02 0.  0.
          5    1    3    3  501    0  0.56482802405E+02  0.52236188385E+02 -0.17552818757E+03  0.19170592317E+03  0.47000000000E+01 0. -1.
        -11    1    4    4    0    0 -0.10483484202E+02 -0.38490982331E+02 -0.99293913884E+01  0.41110241731E+02  0.00000000000E+00 0.  1.
         12    1    4    4    0    0  0.42451498967E+02 -0.27140258099E+02 -0.10683252093E+03  0.11811820733E+03  0.00000000000E+00 0. -1.
         -5    1    5    5    0  502 -0.54702164646E+01  0.69474123714E+02  0.83867586062E+02  0.10914412089E+03  0.47000000000E+01 0.  1.
         13    1    6    6    0    0 -0.96888929458E+02 -0.49005503301E+02  0.96691809916E+02  0.14539019950E+03  0.00000000000E+00 0. -1.
        -14    1    6    6    0    0  0.13908328752E+02 -0.70735683676E+01  0.60999711026E+01  0.16753704831E+02  0.00000000000E+00 0.  1.
</event>
<event>
12    1  0.8297444E-002  0.2079315E+03  0.7818608E-02  0.1143342E+00
         21   -1    0    0  503  502  0.00000000000E+00  0.00000000000E+00  0.29018010622E+03  0.29018010622E+03  0.00000000000E+00 0.  1.
         21   -1    0    0  501  503 -0.00000000000E+00 -0.00000000000E+00 -0.22065312282E+03  0.22065312282E+03  0.00000000000E+00 0. -1.
          6    2    1    2  501    0 -0.55984540206E+01  0.11767200415E+03 -0.11128561355E+03  0.23528160985E+03  0.17057228644E+03 0.  0.
         24    2    3    3    0    0  0.48062757790E+01  0.14399752260E+03 -0.12110739600E+03  0.20495260172E+03  0.81118313498E+02 0.  0.
         -6    2    1    2    0  502  0.55984540206E+01 -0.11767200415E+03  0.18081259695E+03  0.27555161919E+03  0.17134017735E+03 0.  0.
        -24    2    5    5    0    0  0.59022001821E+02 -0.64861563557E+02  0.60602557652E+02  0.13372227934E+03  0.80736354088E+02 0.  0.
          5    1    3    3  501    0 -0.10404729800E+02 -0.26325518444E+02  0.98217824520E+01  0.30329008129E+02  0.47000000000E+01 0. -1.
        -11    1    4    4    0    0  0.25823630089E-01  0.11250429529E+00  0.10140097594E+02  0.10140754572E+02  0.00000000000E+00 0.  1.
         12    1    4    4    0    0  0.47804521489E+01  0.14388501830E+03 -0.13124749360E+03  0.19481184715E+03  0.00000000000E+00 0. -1.
         -5    1    5    5    0  502 -0.53423547801E+02 -0.52810440595E+02  0.12021003930E+03  0.14182933985E+03  0.47000000000E+01 0.  1.
         13    1    6    6    0    0 -0.82592926794E+00 -0.19311281357E+02 -0.16936704255E+02  0.25699410457E+02  0.00000000000E+00 0. -1.
        -14    1    6    6    0    0  0.59847931089E+02 -0.45550282200E+02  0.77539261908E+02  0.10802286888E+03  0.00000000000E+00 0.  1.
</event>
<event>
12    1  0.8297444E-002  0.2113624E+03  0.7818608E-02  0.1140726E+00
         21   -1    0    0  501  502  0.00000000000E+00  0.00000000000E+00  0.47912697211E+02  0.47912697211E+02  0.00000000000E+00 0.  1.
         21   -1    0    0  502  503 -0.00000000000E+00 -0.00000000000E+00 -0.97607152743E+03  0.97607152743E+03  0.00000000000E+00 0.  1.
         -6    2    1    2    0  503  0.10903685710E+03 -0.59819247201E+02 -0.57743717901E+03  0.61449703773E+03  0.16942707912E+03 0.  0.
        -24    2    3    3    0    0 -0.10609192140E+01  0.89547074037E+01 -0.23096575191E+03  0.24447552892E+03  0.79635377538E+02 0.  0.
          6    2    1    2  501    0 -0.10903685710E+03  0.59819247201E+02 -0.35072165121E+03  0.40948718691E+03  0.17089968132E+03 0.  0.
         24    2    5    5    0    0 -0.38350715332E+02  0.23320721504E+02 -0.61992580901E+02  0.10996216449E+03  0.78955456517E+02 0.  0.
          5    1    5    5  501    0 -0.70686141765E+02  0.36498525697E+02 -0.28872907031E+03  0.29952502242E+03  0.47000000000E+01 0. -1.
        -13    1    6    6    0    0 -0.59420069912E+02  0.68801484762E+01 -0.57290751318E+02  0.82826996433E+02  0.00000000000E+00 0.  1.
         14    1    6    6    0    0  0.21069354580E+02  0.16440573028E+02 -0.47018295830E+01  0.27135168054E+02  0.00000000000E+00 0. -1.
         -5    1    3    3    0  503  0.11009777631E+03 -0.68773954604E+02 -0.34647142710E+03  0.37002150881E+03  0.47000000000E+01 0.  1.
         11    1    4    4    0    0 -0.22395254317E+02  0.38563528605E+01 -0.14621982651E+02  0.27022606276E+02  0.00000000000E+00 0. -1.
        -12    1    4    4    0    0  0.21334335103E+02  0.50983545432E+01 -0.21634376925E+03  0.21745292265E+03  0.00000000000E+00 0.  1.
</event>
<event>
12    1  0.8297444E-002  0.2441100E+03  0.7818608E-02  0.1117103E+00
         21   -1    0    0  503  502  0.00000000000E+00  0.00000000000E+00  0.14949033931E+03  0.14949033931E+03  0.00000000000E+00 0. -1.
         21   -1    0    0  501  503 -0.00000000000E+00 -0.00000000000E+00 -0.41744990528E+03  0.41744990528E+03  0.00000000000E+00 0.  1.
          6    2    1    2  501    0 -0.13222186172E+03 -0.11100008751E+03 -0.73444734497E+02  0.25480929221E+03  0.17242391431E+03 0.  0.
         24    2    3    3    0    0 -0.80425064922E+02 -0.11200788354E+03  0.59435389386E+01  0.15989611204E+03  0.80730935497E+02 0.  0.
         -6    2    1    2    0  502  0.13222186172E+03  0.11100008751E+03 -0.19451483147E+03  0.31213095238E+03  0.17258641786E+03 0.  0.
        -24    2    5    5    0    0  0.88867654400E+02  0.14109878353E+03 -0.17462041908E+03  0.25553239728E+03  0.83655176696E+02 0.  0.
          5    1    3    3  501    0 -0.51796796802E+02  0.10077960340E+01 -0.79388273435E+02  0.94913180174E+02  0.47000000000E+01 0. -1.
        -13    1    4    4    0    0  0.58115807970E+00 -0.22701522260E+02 -0.26633490701E+02  0.35000566918E+02  0.00000000000E+00 0.  1.
         14    1    4    4    0    0 -0.81006223001E+02 -0.89306361280E+02  0.32577029640E+02  0.12489554512E+03  0.00000000000E+00 0. -1.
         -5    1    5    5    0  502  0.43354207323E+02 -0.30098696026E+02 -0.19894412385E+02  0.56598555099E+02  0.47000000000E+01 0.  1.
         13    1    6    6    0    0  0.47205920674E+02  0.27296808827E+02 -0.17839759588E+02  0.57373963964E+02  0.00000000000E+00 0. -1.
        -14    1    6    6    0    0  0.41661733726E+02  0.11380197471E+03 -0.15678065950E+03  0.19815843332E+03  0.00000000000E+00 0.  1.
</event>
<event>
12    1  0.8297444E-002  0.2424928E+03  0.7818608E-02  0.1120033E+00
         21   -1    0    0  503  502  0.00000000000E+00  0.00000000000E+00  0.21648436246E+03  0.21648436246E+03  0.00000000000E+00 0.  1.
         21   -1    0    0  501  503 -0.00000000000E+00 -0.00000000000E+00 -0.26509239187E+03  0.26509239187E+03  0.00000000000E+00 0. -1.
          6    2    1    2  501    0 -0.15386980587E+03 -0.16808100715E+02 -0.59596420737E+02  0.23883507577E+03  0.17184885989E+03 0.  0.
         24    2    3    3    0    0 -0.10823533398E+02 -0.29193020331E+02 -0.27234644264E+01  0.84328618101E+02  0.78323159161E+02 0.  0.
         -6    2    1    2    0  502  0.15386980587E+03  0.16808100715E+02  0.10988391326E+02  0.24274167856E+03  0.18666640930E+03 0.  0.
        -24    2    5    5    0    0  0.10537583778E+03 -0.10952069867E+02 -0.64859367735E+02  0.14841636613E+03  0.81219856739E+02 0.  0.
          5    1    3    3  501    0 -0.14304627247E+03  0.12384919617E+02 -0.56872956310E+02  0.15450645767E+03  0.47000000000E+01 0. -1.
        -11    1    4    4    0    0 -0.17823284664E+02  0.24258358744E+02  0.22848719455E+01  0.30188707905E+02  0.00000000000E+00 0.  1.
         12    1    4    4    0    0  0.69997512662E+01 -0.53451379075E+02 -0.50083363719E+01  0.54139910196E+02  0.00000000000E+00 0. -1.
         -5    1    5    5    0  502  0.48493968089E+02  0.27760170582E+02  0.75847759061E+02  0.94325312437E+02  0.47000000000E+01 0.  1.
         13    1    6    6    0    0 -0.61263967445E+00  0.21262119925E+02 -0.28368820900E+01  0.21459286360E+02  0.00000000000E+00 0. -1.
        -14    1    6    6    0    0  0.10598847746E+03 -0.32214189792E+02 -0.62022485645E+02  0.12695707977E+03  0.00000000000E+00 0.  1.
</event>
<event>
12    1  0.8297444E-002  0.1817789E+03  0.7818608E-02  0.1166228E+00
         21   -1    0    0  501  502  0.00000000000E+00  0.00000000000E+00  0.22948939441E+03  0.22948939441E+03  0.00000000000E+00 0. -1.
         21   -1    0    0  502  503 -0.00000000000E+00 -0.00000000000E+00 -0.53019018054E+03  0.53019018054E+03  0.00000000000E+00 0. -1.
         -6    2    1    2    0  503  0.57509760101E+02  0.77345013100E+00 -0.47465970950E+03  0.50807415222E+03  0.17184159447E+03 0.  0.
        -24    2    3    3    0    0  0.38455507813E+02  0.53267250750E+02 -0.40997840232E+03  0.42249129685E+03  0.78104925962E+02 0.  0.
          6    2    1    2  501    0 -0.57509760101E+02 -0.77345013100E+00  0.17395892338E+03  0.25160542273E+03  0.17244016641E+03 0.  0.
         24    2    5    5    0    0 -0.58544183107E+02 -0.71184586827E+01  0.24459353172E+02  0.10189389794E+03  0.79410406432E+02 0.  0.
          5    1    5    5  501    0  0.10344230058E+01  0.63450085517E+01  0.14949957020E+03  0.14971152479E+03  0.47000000000E+01 0. -1.
        -11    1    6    6    0    0  0.91742492168E+01 -0.16404766233E+02 -0.14025620960E+02  0.23452105389E+02  0.00000000000E+00 0.  1.
         12    1    6    6    0    0 -0.67718432324E+02  0.92863075502E+01  0.38484974133E+02  0.78441792549E+02  0.00000000000E+00 0. -1.
         -5    1    3    3    0  503  0.19054252289E+02 -0.52493800619E+02 -0.64681307185E+02  0.85582855367E+02  0.47000000000E+01 0.  1.
         13    1    4    4    0    0  0.56504721332E+02  0.13421438566E+02 -0.24809827896E+03  0.25480516982E+03  0.00000000000E+00 0. -1.
        -14    1    4    4    0    0 -0.18049213519E+02  0.39845812184E+02 -0.16188012336E+03  0.16768612703E+03  0.00000000000E+00 0.  1.
</event>
<event>
12    1  0.8297444E-002  0.1943619E+03  0.7818608E-02  0.1155323E+00
         21   -1    0    0  501  502  0.00000000000E+00  0.00000000000E+00  0.78024760412E+02  0.78024760412E+02  0.00000000000E+00 0.  1.
         21   -1    0    0  502  503 -0.00000000000E+00 -0.00000000000E+00 -0.49851089763E+03  0.49851089763E+03  0.00000000000E+00 0. -1.
         -6    2    1    2    0  503  0.29762489335E+02 -0.81478643049E+02 -0.27340107215E+03  0.33544701309E+03  0.17393095553E+03 0.  0.
        -24    2    3    3    0    0  0.79525083947E+02 -0.86082918122E+02 -0.17578113946E+03  0.22567790801E+03  0.79353647709E+02 0.  0.
          6    2    1    2  501    0 -0.29762489335E+02  0.81478643049E+02 -0.14708506507E+03  0.24108864495E+03  0.17019149013E+03 0.  0.
         24    2    5    5    0    0  0.36222502414E+02  0.84358603140E+02 -0.10840388772E+03  0.16440333484E+03  0.82756329235E+02 0.  0.
          5    1    5    5  501    0 -0.65984991748E+02 -0.28799600906E+01 -0.38681177348E+02  0.76685310114E+02  0.47000000000E+01 0. -1.
        -13    1    6    6    0    0 -0.84724667065E+01 -0.62205260960E+01  0.57481123428E+01  0.11979917884E+02  0.00000000000E+00 0.  1.
         14    1    6    6    0    0  0.44694969120E+02  0.90579129236E+02 -0.11415200006E+03  0.15242341696E+03  0.00000000000E+00 0. -1.
         -5    1    3    3    0  503 -0.49762594612E+02  0.46042750727E+01 -0.97619932688E+02  0.10976910508E+03  0.47000000000E+01 0.  1.
         11    1    4    4    0    0  0.54283141964E+02 -0.54675841983E+02 -0.16774241680E+03  0.18459042660E+03  0.00000000000E+00 0. -1.
        -12    1    4    4    0    0  0.25241941982E+02 -0.31407076138E+02 -0.80387226584E+01  0.41087481410E+02  0.00000000000E+00 0.  1.
</event>
<event>
12    1  0.8297444E-002  0.2431011E+03  0.7818608E-02  0.1117760E+00
         21   -1    0    0  501  502  0.00000000000E+00  0.00000000000E+00  0.59986781587E+03  0.59986781587E+03  0.00000000000E+00 0. -1.
         21   -1    0    0  502  503 -0.00000000000E+00 -0.00000000000E+00 -0.15001979493E+03  0.15001979493E+03  0.00000000000E+00 0. -1.
         -6    2    1    2    0  503 -0.17227546117E+03 -0.23722319463E+02  0.51264785668E+01  0.24305883140E+03  0.16973429758E+03 0.  0.
        -24    2    3    3    0    0 -0.12958123456E+03 -0.34856699831E+02  0.64876780744E+02  0.16863464163E+03  0.78881935866E+02 0.  0.
          6    2    1    2  501    0  0.17227546117E+03  0.23722319463E+02  0.44472154238E+03  0.50682877941E+03  0.16987224147E+03 0.  0.
         24    2    5    5    0    0  0.93968272655E+02  0.58847322328E+02  0.36136100418E+03  0.38709218965E+03  0.83459836648E+02 0.  0.
          5    1    5    5  501    0  0.78307188512E+02 -0.35125002866E+02  0.83360538195E+02  0.11973658976E+03  0.47000000000E+01 0. -1.
        -13    1    6    6    0    0 -0.12216807396E+02  0.20923694663E+02  0.43035677172E+02  0.49387456818E+02  0.00000000000E+00 0.  1.
         14    1    6    6    0    0  0.10618508005E+03  0.37923627666E+02  0.31832532701E+03  0.33770473283E+03  0.00000000000E+00 0. -1.
         -5    1    3    3    0  503 -0.42694226610E+02  0.11134380368E+02 -0.59750302177E+02  0.74424189765E+02  0.47000000000E+01 0.  1.
         11    1    4    4    0    0 -0.76204122625E+02 -0.52113293731E+02  0.14919456736E+02  0.93517131467E+02  0.00000000000E+00 0. -1.
        -12    1    4    4    0    0 -0.53377111932E+02  0.17256593900E+02  0.49957324007E+02  0.75117510164E+02  0.00000000000E+00 0.  1.
</event>
<event>
12    1  0.8297444E-002  0.1756026E+03  0.7818608E-02  0.1172312E+00
         21   -1    0    0  501  502  0.00000000000E+00  0.00000000000E+00  0.99345043586E+03  0.99345043586E+03  0.00000000000E+00 0. -1.
         21   -1    0    0  502  503 -0.00000000000E+00 -0.00000000000E+00 -0.65894478293E+02  0.65894478293E+02  0.00000000000E+00 0. -1.
         -6    2    1    2    0  503 -0.21783831565E+02  0.27967592549E+02  0.78292440841E+02  0.19226541527E+03  0.17198709854E+03 0.  0.
        -24    2    3    3    0    0  0.10001138331E+02 -0.89913062581E+01 -0.29534566226E+02  0.73838231038E+02  0.66324410321E+02 0.  0.
          6    2    1    2  501    0  0.21783831565E+02 -0.27967592549E+02  0.84926351673E+03  0.86707949888E+03  0.17123555410E+03 0.  0.
         24    2    5    5    0    0  0.56190415153E+02 -0.70014985655E+02  0.60755096263E+03  0.61929159548E+03  0.79652037488E+02 0.  0.
          5    1    5    5  501    0 -0.34406583588E+02  0.42047393107E+02  0.24171255410E+03  0.24778790340E+03  0.47000000000E+01 0. -1.
        -11    1    6    6    0    0  0.68953352873E+02 -0.32542684229E+02  0.47049981377E+03  0.47663787715E+03  0.00000000000E+00 0.  1.
         12    1    6    6    0    0 -0.12762937720E+02 -0.37472301426E+02  0.13705114885E+03  0.14265371834E+03  0.00000000000E+00 0. -1.
         -5    1    3    3    0  503 -0.31784969896E+02  0.36958898807E+02  0.10782700707E+03  0.11842718423E+03  0.47000000000E+01 0.  1.
         13    1    4    4    0    0 -0.25402905057E+02 -0.13298380938E+02 -0.24703805079E+02  0.37847490093E+02  0.00000000000E+00 0. -1.
        -14    1    4    4    0    0  0.35404043388E+02  0.43070746801E+01 -0.48307611469E+01  0.35990740945E+02  0.00000000000E+00 0.  1.
</event>
<event>
12    1  0.8297444E-002  0.2237889E+03  0.7818608E-02  0.1131568E+00
         21   -1    0    0  501  502  0.00000000000E+00  0.00000000000E+00  0.21703241304E+04  0.21703241304E+04  0.00000000000E+00 0.  1.
         21   -1    0    0  502  503 -0.00000000000E+00 -0.00000000000E+00 -0.36558594402E+03  0.36558594402E+03  0.00000000000E+00 0.  1.
         -6    2    1    2    0  503  0.12091542743E+03  0.76008157098E+02 -0.32506654985E+03  0.39465143109E+03  0.17228960994E+03 0.  0.
        -24    2    3    3    0    0  0.30149749552E+02  0.64353141811E+02 -0.83370827686E+02  0.13616901433E+03  0.80876271523E+02 0.  0.
          6    2    1    2  501    0 -0.12091542743E+03 -0.76008157098E+02  0.21298047362E+04  0.21412586433E+04  0.16888630068E+03 0.  0.
         24    2    5    5    0    0 -0.87754122370E+02  0.17102702086E+02  0.12514008516E+04  0.12572989277E+04  0.82481597091E+02 0.  0.
          5    1    5    5  501    0 -0.33161305064E+02 -0.93110859184E+02  0.87840388467E+03  0.88395971562E+03  0.47000000000E+01 0. -1.
        -11    1    6    6    0    0 -0.60101744684E+02 -0.90736195320E+01  0.10804710899E+04  0.10821794336E+04  0.00000000000E+00 0.  1.
         12    1    6    6    0    0 -0.27652377686E+02  0.26176321618E+02  0.17092976166E+03  0.17511949414E+03  0.00000000000E+00 0. -1.
         -5    1    3    3    0  503  0.90765677882E+02  0.11655015287E+02 -0.24169572217E+03  0.25848241676E+03  0.47000000000E+01 0.  1.
         13    1    4    4    0    0 -0.18820446004E+02  0.10052871154E+01  0.22049563050E+01  0.18975816775E+02  0.00000000000E+00 0. -1.
        -14    1    4    4    0    0  0.48970195556E+02  0.63347854696E+02 -0.85575783991E+02  0.11719319755E+03  0.00000000000E+00 0.  1.
</event>
<event>
12    1  0.8297444E-002  0.1909240E+03  0.7818608E-02  0.1157758E+00
         21   -1    0    0  501  502  0.00000000000E+00  0.00000000000E+00  0.96134466538E+02  0.96134466538E+02  0.00000000000E+00 0. -1.
         21   -1    0    0  502  503 -0.00000000000E+00 -0.00000000000E+00 -0.42805039060E+03  0.42805039060E+03  0.00000000000E+00 0.  1.
         -6    2    1    2    0  503  0.57904690761E+02  0.59984169591E+02 -0.25531719748E+03  0.31846817149E+03  0.17112583414E+03 0.  0.
        -24    2    3    3    0    0  0.16994389716E+02  0.46354667562E+01 -0.41328252679E+02  0.93633809937E+02  0.82152109285E+02 0.  0.
          6    2    1    2  501    0 -0.57904690761E+02 -0.59984169591E+02 -0.76598726578E+02  0.20571668565E+03  0.17175836523E+03 0.  0.
         24    2    5    5    0    0 -0.37459613994E+02  0.30965984879E+02 -0.17273508666E+02  0.95120558940E+02  0.79921409718E+02 0.  0.
          5    1    5    5  501    0 -0.20445076767E+02 -0.90950154470E+02 -0.59325217911E+02  0.11059612671E+03  0.47000000000E+01 0. -1.
        -11    1    6    6    0    0  0.15596387982E+02  0.27684834294E+02  0.12554956744E+02  0.34166128063E+02  0.00000000000E+00 0.  1.
         12    1    6    6    0    0 -0.53056001976E+02  0.32811505855E+01 -0.29828465411E+02  0.60954430878E+02  0.00000000000E+00 0. -1.
         -5    1    3    3    0  503  0.40910301045E+02  0.55348702835E+02 -0.21398894480E+03  0.22483436155E+03  0.47000000000E+01 0.  1.
         11    1    4    4    0    0  0.45329498488E+02  0.33567089533E+01 -0.24645333465E+01  0.45520378434E+02  0.00000000000E+00 0. -1.
        -12    1    4    4    0    0 -0.28335108772E+02  0.12787578029E+01 -0.38863719333E+02  0.48113431503E+02  0.00000000000E+00 0.  1.
</event>
<event>
12    1  0.8297444E-002  0.1828856E+03  0.7818608E-02  0.1165378E+00
         21   -1    0    0  503  502  0.00000000000E+00  0.00000000000E+00  0.69661052010E+02  0.69661052010E+02  0.00000000000E+00 0.  1.
         21   -1    0    0  501  503 -0.00000000000E+00 -0.00000000000E+00 -0.17841741010E+04  0.17841741010E+04  0.00000000000E+00 0.  1.
          6    2    1    2  501    0 -0.43722625994E+02  0.36289749471E+02 -0.16517236114E+04  0.16618176864E+04  0.17383475077E+03 0.  0.
         24    2    3    3    0    0  0.17467165416E+02  0.51714373188E+02 -0.13535765716E+04  0.13570294699E+04  0.79874706769E+02 0.  0.
         -6    2    1    2    0  502  0.43722625994E+02 -0.36289749471E+02 -0.62789437609E+02  0.19201746659E+03  0.17233566102E+03 0.  0.
        -24    2    5    5    0    0  0.52392802315E+02 -0.66651460875E+02  0.44089661060E+01  0.11762176148E+03  0.81412633048E+02 0.  0.
          5    1    3    3  501    0 -0.61189791410E+02 -0.15424623716E+02 -0.29814703978E+03  0.30478821650E+03  0.47000000000E+01 0. -1.
        -11    1    4    4    0    0 -0.13980985838E+01 -0.21177520412E+02 -0.33794381515E+03  0.33860960448E+03  0.00000000000E+00 0.  1.
         12    1    4    4    0    0  0.18865263999E+02  0.72891893600E+02 -0.10156327565E+04  0.10184198655E+04  0.00000000000E+00 0. -1.
         -5    1    5    5    0  502 -0.86701763210E+01  0.30361711403E+02 -0.67198403715E+02  0.74395705108E+02  0.47000000000E+01 0.  1.
         11    1    6    6    0    0  0.16866288799E+02 -0.46340501513E+02 -0.35263655737E+02  0.60625400570E+02  0.00000000000E+00 0. -1.
        -12    1    6    6    0    0  0.35526513515E+02 -0.20310959362E+02  0.39672621843E+02  0.56996360907E+02  0.00000000000E+00 0.  1.
</event>
<event>
12    1  0.8297444E-002  0.1880588E+03  0.7818608E-02  0.1160345E+00
         21   -1    0    0  501  502  0.00000000000E+00  0.00000000000E+00  0.82399682598E+03  0.82399682598E+03  0.00000000000E+00 0.  1.
         21   -1    0    0  502  503 -0.00000000000E+00 -0.00000000000E+00 -0.43423635099E+02  0.43423635099E+02  0.00000000000E+00 0. -1.
         -6    2    1    2    0  503  0.58123822878E+02 -0.47665724666E+02  0.33775156476E+03  0.38632057115E+03  0.17180530872E+03 0.  0.
        -24    2    3    3    0    0  0.22732145978E+02 -0.47844345956E+02  0.72777044158E+02  0.11895155786E+03  0.77763378661E+02 0.  0.
          6    2    1    2  501    0 -0.58123822878E+02  0.47665724666E+02  0.44282162613E+03  0.48109988993E+03  0.17238245686E+03 0.  0.
         24    2    5    5    0    0 -0.88402615565E+02  0.31906595049E+02  0.42339691181E+03  0.44154530765E+03  0.82850833041E+02 0.  0.
          5    1    5    5  501    0  0.30278792687E+02  0.15759129616E+02  0.19424714316E+02  0.39554582277E+02  0.47000000000E+01 0. -1.
        -13    1    6    6    0    0 -0.81203275662E+02  0.54384065629E+02  0.28863840182E+03  0.30473550102E+03  0.00000000000E+00 0.  1.
         14    1    6    6    0    0 -0.71993399026E+01 -0.22477470580E+02  0.13475850999E+03  0.13680980664E+03  0.00000000000E+00 0. -1.
         -5    1    3    3    0  503  0.35391676900E+02  0.17862128972E+00  0.26497452060E+03  0.26736901329E+03  0.47000000000E+01 0.  1.
         11    1    4    4    0    0  0.13554066876E+02 -0.57710650574E+02  0.83028990291E+02  0.10201982723E+03  0.00000000000E+00 0. -1.
        -12    1    4    4    0    0  0.91780791013E+01  0.98663046189E+01 -0.10251946133E+02  0.16931730636E+02  0.00000000000E+00 0.  1.
</event>
<event>
12    1  0.8297444E-002  0.1917482E+03  0.7818608E-02  0.1157202E+00
         21   -1    0    0  503  502  0.00000000000E+00  0.00000000000E+00  0.50074161037E+03  0.50074161037E+03  0.00000000000E+00 0. -1.
         21   -1    0    0  501  503 -0.00000000000E+00 -0.00000000000E+00 -0.16320326306E+03  0.16320326306E+03  0.00000000000E+00 0.  1.
          6    2    1    2  501    0  0.37419746339E+02  0.75102501624E+02 -0.77898310470E+02  0.20696742515E+03  0.17241445744E+03 0.  0.
         24    2    3    3    0    0 -0.63008998653E+01  0.10234405778E+03 -0.23896288809E+02  0.13218837976E+03  0.79929516594E+02 0.  0.
         -6    2    1    2    0  502 -0.37419746339E+02 -0.75102501624E+02  0.41543665778E+03  0.45697744827E+03  0.17088050922E+03 0.  0.
        -24    2    5    5    0    0  0.30352876273E+02 -0.44077946911E+00  0.23875323847E+03  0.25349127726E+03  0.79581576915E+02 0.  0.
          5    1    3    3  501    0  0.43720646204E+02 -0.27241556156E+02 -0.54002021660E+02  0.74779045392E+02  0.47000000000E+01 0. -1.
        -13    1    4    4    0    0  0.25432536824E+02  0.93391101752E+02 -0.21344295726E+02  0.99117560381E+02  0.00000000000E+00 0.  1.
         14    1    4    4    0    0 -0.31733436690E+02  0.89529560287E+01 -0.25519930836E+01  0.33070819381E+02  0.00000000000E+00 0. -1.
         -5    1    5    5    0  502 -0.67772622612E+02 -0.74661722155E+02  0.17668341931E+03  0.20348617101E+03  0.47000000000E+01 0.  1.
         13    1    6    6    0    0  0.11077153240E+01 -0.27665737944E+02  0.29503017761E+02  0.40460451632E+02  0.00000000000E+00 0. -1.
        -14    1    6    6    0    0  0.29245160949E+02  0.27224958475E+02  0.20925022071E+03  0.21303082563E+03  0.00000000000E+00 0.  1.
</event>
<event>
12    1  0.8297444E-002  0.1867892E+03  0.7818608E-02  0.1161836E+00
         21   -1    0    0  503  502  0.00000000000E+00  0.00000000000E+00  0.54564195881E+02  0.54564195881E+02  0.00000000000E+00 0.  1.
         21   -1    0    0  501  503 -0.00000000000E+00 -0.00000000000E+00 -0.10565678781E+04  0.10565678781E+04  0.00000000000E+00 0.  1.
          6    2    1    2  501    0  0.46015656280E+01  0.68753467420E+02 -0.85437451911E+03  0.87455476629E+03  0.17361453470E+03 0.  0.
         24    2    3    3    0    0 -0.13659722903E+02 -0.27072044588E+02 -0.42583250013E+03  0.43502506827E+03  0.83630187335E+02 0.  0.
         -6    2    1    2    0  502 -0.46015656280E+01 -0.68753467420E+02 -0.14762916308E+03  0.23657730765E+03  0.17154077946E+03 0.  0.
        -24    2    5    5    0    0  0.20619382479E+02 -0.70832935899E+02 -0.17000567914E+03  0.20247131282E+03  0.81548990407E+02 0.  0.
          5    1    3    3  501    0  0.18261288531E+02  0.95825512008E+02 -0.42854201898E+03  0.43952969802E+03  0.47000000000E+01 0. -1.
        -11    1    4    4    0    0  0.26701168749E+02  0.14932660579E+02 -0.15716098696E+03  0.16011093837E+03  0.00000000000E+00 0.  1.
         12    1    4    4    0    0 -0.40360891652E+02 -0.42004705167E+02 -0.26867151317E+03  0.27491412990E+03  0.00000000000E+00 0. -1.
         -5    1    5    5    0  502 -0.25220948107E+02  0.20794684781E+01  0.22376516056E+02  0.34105994831E+02  0.47000000000E+01 0.  1.
         13    1    6    6    0    0  0.43617166493E+02 -0.30405188997E+02 -0.46994501250E+02  0.70960664305E+02  0.00000000000E+00 0. -1.
        -14    1    6    6    0    0 -0.22997784014E+02 -0.40427746901E+02 -0.12301117789E+03  0.13151064852E+03  0.00000000000E+00 0.  1.
</event>
<event>
12    1  0.8297444E-002  0.1938685E+03  0.7818608E-02  0.1155151E+00
         21   -1    0    0  503  502  0.00000000000E+00  0.00000000000E+00  0.68358284296E+02  0.68358284296E+02  0.00000000000E+00 0.  1.
         21   -1    0    0  501  503 -0.00000000000E+00 -0.00000000000E+00 -0.20199923382E+04  0.20199923382E+04  0.00000000000E+00 0.  1.
          6    2    1    2  501    0  0.80385348913E+02  0.39086679377E+02 -0.18667262071E+04  0.18767038976E+04  0.17135114329E+03 0.  0.
         24    2    3    3    0    0 -0.21331491025E+02  0.49835765717E+01 -0.96860713196E+03  0.97218783903E+03  0.80433511227E+02 0.  0.
         -6    2    1    2    0  502 -0.80385348913E+02 -0.39086679377E+02 -0.84907846812E+02  0.21164672487E+03  0.17203319701E+03 0.  0.
        -24    2    5    5    0    0 -0.26896541210E+02 -0.77374369083E+02 -0.86298363088E+02  0.14568443816E+03  0.84061472327E+02 0.  0.
          5    1    3    3  501    0  0.10171683994E+03  0.34103102805E+02 -0.89811907512E+03  0.90451605859E+03  0.47000000000E+01 0. -1.
        -13    1    4    4    0    0  0.23714926523E+02  0.12301914945E+01 -0.64521765897E+03  0.64565450402E+03  0.00000000000E+00 0.  1.
         14    1    4    4    0    0 -0.45046417548E+02  0.37533850772E+01 -0.32338947299E+03  0.32653333501E+03  0.00000000000E+00 0. -1.
         -5    1    5    5    0  502 -0.53488807703E+02  0.38287689706E+02  0.13905162759E+01  0.65962286710E+02  0.47000000000E+01 0.  1.
         11    1    6    6    0    0  0.21417449570E+02 -0.13738376447E+01 -0.75463759948E+00  0.21474730589E+02  0.00000000000E+00 0. -1.
        -12    1    6    6    0    0 -0.48313990780E+02 -0.76000531438E+02 -0.85543725488E+02  0.12420970757E+03  0.00000000000E+00 0.  1.
</event>
<event>
12    1  0.8297444E-002  0.1963957E+03  0.7818608E-02  0.1152838E+00
         21   -1    0    0  503  502  0.00000000000E+00  0.00000000000E+00  0.68288674282E+03  0.68288674282E+03  0.00000000000E+00 0. -1.
         21   -1    0    0  501  503 -0.00000000000E+00 -0.00000000000E+00 -0.59330379867E+02  0.59330379867E+02  0.00000000000E+00 0.  1.
          6    2    1    2  501    0 -0.90756644165E+02  0.24942149257E+02  0.23012881799E+03  0.30254017709E+03  0.17237287088E+03 0.  0.
         24    2    3    3    0    0 -0.18457797346E+02 -0.47324018267E+02  0.12039784226E+03  0.15249851870E+03  0.78612370498E+02 0.  0.
         -6    2    1    2    0  502  0.90756644165E+02 -0.24942149257E+02  0.39342754496E+03  0.43967694560E+03  0.17225476505E+03 0.  0.
        -24    2    5    5    0    0  0.68690191097E+02 -0.42124858534E+02  0.39507598768E+03  0.41126953085E+03  0.81023113403E+02 0.  0.
          5    1    3    3  501    0 -0.72298846819E+02  0.72266167524E+02  0.10973097573E+03  0.15004165840E+03  0.47000000000E+01 0. -1.
        -13    1    4    4    0    0  0.18694057062E+02  0.12555770662E+02  0.37009012405E+02  0.43321843746E+02  0.00000000000E+00 0.  1.
         14    1    4    4    0    0 -0.37151854409E+02 -0.59879788929E+02  0.83388829857E+02  0.10917667495E+03  0.00000000000E+00 0. -1.
         -5    1    5    5    0  502  0.22066453068E+02  0.17182709277E+02 -0.16484427176E+01  0.28407414745E+02  0.47000000000E+01 0.  1.
         11    1    6    6    0    0 -0.27092300870E+01  0.11434589163E+02  0.14976870527E+03  0.15022900797E+03  0.00000000000E+00 0. -1.
        -12    1    6    6    0    0  0.71399421184E+02 -0.53559447697E+02  0.24530728241E+03  0.26104052288E+03  0.00000000000E+00 0.  1.
</event>
<event>
12    1  0.8297444E-002  0.3916190E+03  0.7818608E-02  0.1046757E+00
         21   -1    0    0  501  502  0.00000000000E+00  0.00000000000E+00  0.54763378296E+03  0.54763378296E+03  0.00000000000E+00 0.  1.
         21   -1    0    0  502  503 -0.00000000000E+00 -0.00000000000E+00 -0.28411670654E+03  0.28411670654E+03  0.00000000000E+00 0. -1.
         -6    2    1    2    0  503 -0.27310527937E+03  0.22176548491E+03  0.18318494976E+03  0.43197717836E+03  0.17111730739E+03 0.  0.
        -24    2    3    3    0    0 -0.18687229849E+03  0.92733927753E+02  0.16055058485E+03  0.27507060040E+03  0.79790397958E+02 0.  0.
          6    2    1    2  501    0  0.27310527937E+03 -0.22176548491E+03  0.80332126658E+02  0.39977331115E+03  0.17204367415E+03 0.  0.
         24    2    5    5    0    0  0.59202773114E+02 -0.28129121258E+02  0.19754850474E+02  0.10491568465E+03  0.79503653767E+02 0.  0.
          5    1    5    5  501    0  0.21390250625E+03 -0.19363636365E+03  0.60577276184E+02  0.29485762649E+03  0.47000000000E+01 0. -1.
        -13    1    6    6    0    0  0.41141921556E+02 -0.10743741187E+02 -0.28047550125E+02  0.50938696019E+02  0.00000000000E+00 0.  1.
         14    1    6    6    0    0  0.18060851557E+02 -0.17385380071E+02  0.47802400599E+02  0.53976988636E+02  0.00000000000E+00 0. -1.
         -5    1    3    3    0  503 -0.86232980874E+02  0.12903155716E+03  0.22634364908E+02  0.15690657796E+03  0.47000000000E+01 0.  1.
         11    1    4    4    0    0 -0.35466448901E+02 -0.10497481763E+02  0.45747944915E+02  0.58829759348E+02  0.00000000000E+00 0. -1.
        -12    1    4    4    0    0 -0.15140584959E+03  0.10323140952E+03  0.11480263994E+03  0.21624084105E+03  0.00000000000E+00 0.  1.
</event>
<event>
12    1  0.8297444E-002  0.3837855E+03  0.7818608E-02  0.1049573E+00
         21   -1    0    0  503  502  0.00000000000E+00  0.00000000000E+00  0.21708779778E+04  0.21708779778E+04  0.00000000000E+00 0. -1.
         21   -1    0    0  501  503 -0.00000000000E+00 -0.00000000000E+00 -0.80742662508E+02  0.80742662508E+02  0.00000000000E+00 0.  1.
          6    2    1    2  501    0 -0.34231546076E+03 -0.18549565075E+02  0.59380207712E+03  0.70685383049E+03  0.17180648956E+03 0.  0.
         24    2    3    3    0    0 -0.22230752360E+03 -0.57139711419E+02  0.28293768832E+03  0.37136931133E+03  0.71943368392E+02 0.  0.
         -6    2    1    2    0  502  0.34231546076E+03  0.18549565075E+02  0.14963332382E+04  0.15447668098E+04  0.17253224626E+03 0.  0.
        -24    2    5    5    0    0  0.55578376353E+02  0.95722749588E+01  0.40112575568E+03  0.41260062633E+03  0.78465410296E+02 0.  0.
          5    1    3    3  501    0 -0.12000793716E+03  0.38590146344E+02  0.31086438880E+03  0.33548451916E+03  0.47000000000E+01 0. -1.
        -11    1    4    4    0    0 -0.17929228327E+03 -0.20560481071E+02  0.18583524510E+03  0.25904284306E+03  0.00000000000E+00 0.  1.
         12    1    4    4    0    0 -0.43015240332E+02 -0.36579230348E+02  0.97102443224E+02  0.11232646827E+03  0.00000000000E+00 0. -1.
         -5    1    5    5    0  502  0.28673708440E+03  0.89772901157E+01  0.10952074825E+04  0.11321661835E+04  0.47000000000E+01 0.  1.
         13    1    6    6    0    0  0.62612102501E+02 -0.18282849932E+02  0.22959338527E+03  0.23867899057E+03  0.00000000000E+00 0. -1.
        -14    1    6    6    0    0 -0.70337261481E+01  0.27855124891E+02  0.17153237042E+03  0.17392163576E+03  0.00000000000E+00 0.  1.
</event>
<event>
12    1  0.8297444E-002  0.1884312E+03  0.7818608E-02  0.1160240E+00
         21   -1    0    0  501  502  0.00000000000E+00  0.00000000000E+00  0.16596627830E+03  0.16596627830E+03  0.00000000000E+00 0.  1.
         21   -1    0    0  502  503 -0.00000000000E+00 -0.00000000000E+00 -0.26706431869E+03  0.26706431869E+03  0.00000000000E+00 0.  1.
         -6    2    1    2    0  503  0.49686753772E+02 -0.56637410699E+02 -0.14887059102E+03  0.24014320484E+03  0.17271287204E+03 0.  0.
        -24    2    3    3    0    0 -0.28504259671E+02 -0.35864252793E+02 -0.95368286503E+02  0.14303529960E+03  0.96256165579E+02 0.  0.
          6    2    1    2  501    0 -0.49686753772E+02  0.56637410699E+02  0.47772550635E+02  0.19288739216E+03  0.17101684030E+03 0.  0.
         24    2    5    5    0    0 -0.59513586762E+01 -0.13274954068E+02  0.70282485336E+02  0.10727599869E+03  0.79729976003E+02 0.  0.
          5    1    5    5  501    0 -0.43735395096E+02  0.69912364767E+02 -0.22509934701E+02  0.85611393469E+02  0.47000000000E+01 0. -1.
        -13    1    6    6    0    0 -0.38151713518E+02  0.21829221150E+01  0.58092774649E+02  0.69534803227E+02  0.00000000000E+00 0.  1.
         14    1    6    6    0    0  0.32200354842E+02 -0.15457876183E+02  0.12189710686E+02  0.37741195459E+02  0.00000000000E+00 0. -1.
         -5    1    3    3    0  503  0.78191013444E+02 -0.20773157906E+02 -0.53502304522E+02  0.97107905249E+02  0.47000000000E+01 0.  1.
         11    1    4    4    0    0 -0.26654668942E+02  0.27474041069E+02 -0.16033986754E+02  0.41501602864E+02  0.00000000000E+00 0. -1.
        -12    1    4    4    0    0 -0.18495907295E+01 -0.63338293862E+02 -0.79334299749E+02  0.10153369673E+03  0.00000000000E+00 0.  1.
</event>
<event>
12    1  0.8297444E-002  0.1792459E+03  0.7818608E-02  0.1170219E+00
         21   -1    0    0  503  502  0.00000000000E+00  0.00000000000E+00  0.32410439752E+03  0.32410439752E+03  0.00000000000E+00 0. -1.
         21   -1    0    0  501  503 -0.00000000000E+00 -0.00000000000E+00 -0.13980019718E+03  0.13980019718E+03  0.00000000000E+00 0. -1.
          6    2    1    2  501    0 -0.44455757501E+02 -0.26669799561E+02 -0.37312120074E+02  0.18308820862E+03  0.17158527107E+03 0.  0.
         24    2    3    3    0    0 -0.32846340277E+02  0.39108315634E+02 -0.59076189888E+02  0.11268008593E+03  0.81230924722E+02 0.  0.
         -6    2    1    2    0  502  0.44455757501E+02  0.26669799561E+02  0.22161632041E+03  0.28081638607E+03  0.16448846959E+03 0.  0.
        -24    2    5    5    0    0  0.50264135581E+02  0.42812319323E+02  0.62084907229E+02  0.12029635619E+03  0.79103094727E+02 0.  0.
          5    1    3    3  501    0 -0.11609417224E+02 -0.65778115196E+02  0.21764069814E+02  0.70408122698E+02  0.47000000000E+01 0. -1.
        -11    1    4    4    0    0  0.65147482793E+01 -0.17843205996E+02  0.35532081450E+01  0.19324782883E+02  0.00000000000E+00 0.  1.
         12    1    4    4    0    0 -0.39361088557E+02  0.56951521630E+02 -0.62629398033E+02  0.93355303043E+02  0.00000000000E+00 0. -1.
         -5    1    5    5    0  502 -0.58083780799E+01 -0.16142519761E+02  0.15953141318E+03  0.16052002988E+03  0.47000000000E+01 0.  1.
         13    1    6    6    0    0  0.34408937995E+01  0.45084581193E+02  0.57566402856E+02  0.73200751015E+02  0.00000000000E+00 0. -1.
        -14    1    6    6    0    0  0.46823241782E+02 -0.22722618702E+01  0.45185043732E+01  0.47095605174E+02  0.00000000000E+00 0.  1.
</event>
<event>
12    1  0.8297444E-002  0.2171512E+03  0.7818608E-02  0.1136049E+00
         21   -1    0    0  503  502  0.00000000000E+00  0.00000000000E+00  0.50150709052E+03  0.50150709052E+03  0.00000000000E+00 0.  1.
         21   -1    0    0  501  503 -0.00000000000E+00 -0.00000000000E+00 -0.10664492135E+03  0.10664492135E+03  0.00000000000E+00 0.  1.
          6    2    1    2  501    0  0.13212966401E+03 -0.11799409983E+02  0.92657392161E+02  0.23609327989E+03  0.17192198900E+03 0.  0.
         24    2    3    3    0    0  0.81711390324E+02 -0.44003550262E+02 -0.67179501702E+01  0.12000427251E+03  0.75781467528E+02 0.  0.
         -6    2    1    2    0  502 -0.13212966401E+03  0.11799409983E+02  0.30220477701E+03  0.37205873198E+03  0.17176291393E+03 0.  0.
        -24    2    5    5    0    0 -0.16842175729E+00  0.19692238639E+02  0.10572492655E+03  0.13519909456E+03  0.81934256854E+02 0.  0.
          5    1    3    3  501    0  0.50418273684E+02  0.32204140279E+02  0.99375342331E+02  0.11608900739E+03  0.47000000000E+01 0. -1.
        -11    1    4    4    0    0  0.72767927081E+02 -0.28464527591E+02  0.26290076397E+02  0.82441304330E+02  0.00000000000E+00 0.  1.
         12    1    4    4    0    0  0.89434632433E+01 -0.15539022671E+02 -0.33008026567E+02  0.37562968176E+02  0.00000000000E+00 0. -1.
         -5    1    5    5    0  502 -0.13196124225E+03 -0.78928286560E+01  0.19647985046E+03  0.23685963742E+03  0.47000000000E+01 0.  1.
         11    1    6    6    0    0  0.48696212568E+01  0.52847270147E+01 -0.13343956776E+02  0.15155947125E+02  0.00000000000E+00 0. -1.
        -12    1    6    6    0    0 -0.50380430140E+01  0.14407511624E+02  0.11906888333E+03  0.12004314743E+03  0.00000000000E+00 0.  1.
</event>
<event>
12    1  0.8297444E-002  0.2163868E+03  0.7818608E-02  0.1136885E+00
         21   -1    0    0  501  502  0.00000000000E+00  0.00000000000E+00  0.12416457420E+03  0.12416457420E+03  0.00000000000E+00 0. -1.
         21   -1    0    0  502  503 -0.00000000000E+00 -0.00000000000E+00 -0.37698800320E+03  0.37698800320E+03  0.00000000000E+00 0.  1.
         -6    2    1    2    0  503 -0.98876713446E+02 -0.85533039796E+02 -0.14690779764E+03  0.26154373834E+03  0.17242598614E+03 0.  0.
        -24    2    3    3    0    0 -0.46169595805E+01 -0.86973569093E+02 -0.96172041834E+02  0.15438412262E+03  0.83664076221E+02 0.  0.
          6    2    1    2  501    0  0.98876713446E+02  0.85533039796E+02 -0.10591563136E+03  0.23960883907E+03  0.17059240732E+03 0.  0.
         24    2    5    5    0    0  0.97858227708E+02  0.83162857519E+02 -0.13965685962E+03  0.20544430247E+03  0.78810084244E+02 0.  0.
          5    1    5    5  501    0  0.10184857376E+01  0.23701822773E+01  0.33741228254E+02  0.34164536603E+02  0.47000000000E+01 0. -1.
        -11    1    6    6    0    0  0.20309035128E+02  0.29331564021E+02 -0.94077729431E+02  0.10061519135E+03  0.00000000000E+00 0.  1.
         12    1    6    6    0    0  0.77549192581E+02  0.53831293497E+02 -0.45579130186E+02  0.10482911112E+03  0.00000000000E+00 0. -1.
         -5    1    3    3    0  503 -0.94259753865E+02  0.14405292970E+01 -0.50735755804E+02  0.10715961572E+03  0.47000000000E+01 0.  1.
         11    1    4    4    0    0 -0.27563770696E+02 -0.44775002161E+02 -0.69269442055E+01  0.53033431244E+02  0.00000000000E+00 0. -1.
        -12    1    4    4    0    0  0.22946811115E+02 -0.42198566931E+02 -0.89245097628E+02  0.10135069137E+03  0.00000000000E+00 0.  1.
</event>
<event>
12    1  0.8297444E-002  0.2686705E+03  0.7818608E-02  0.1102168E+00
         21   -1    0    0  501  502  0.00000000000E+00  0.00000000000E+00  0.37927477794E+03  0.37927477794E+03  0.00000000000E+00 0. -1.
         21   -1    0    0  502  503 -0.00000000000E+00 -0.00000000000E+00 -0.18985626332E+03  0.18985626332E+03  0.00000000000E+00 0.  1.
         -6    2    1    2    0  503 -0.48984590672E+01  0.20613025861E+03  0.86846148547E+02  0.28235810328E+03  0.17225030205E+03 0.  0.
        -24    2    3    3    0    0 -0.39013393960E+02  0.21566604564E+03  0.55590749792E+02  0.23488442670E+03  0.63611903725E+02 0.  0.
          6    2    1    2  501    0  0.48984590672E+01 -0.20613025861E+03  0.10257236607E+03  0.28677293797E+03  0.17089163015E+03 0.  0.
         24    2    5    5    0    0 -0.36476792844E+02 -0.18405212912E+03  0.39774043533E+02  0.20825494904E+03  0.81132031961E+02 0.  0.
          5    1    5    5  501    0  0.41375251912E+02 -0.22078129489E+02  0.62798322539E+02  0.78517988934E+02  0.47000000000E+01 0. -1.
        -13    1    6    6    0    0  0.15866938833E+02 -0.33806206979E+02 -0.14629454831E+02  0.40107858668E+02  0.00000000000E+00 0.  1.
         14    1    6    6    0    0 -0.52343731678E+02 -0.15024592214E+03  0.54403498364E+02  0.16814709037E+03  0.00000000000E+00 0. -1.
         -5    1    3    3    0  503  0.34114934892E+02 -0.95357870290E+01  0.31255398755E+02  0.47473676583E+02  0.47000000000E+01 0.  1.
         11    1    4    4    0    0  0.11921403873E+02  0.12428097467E+02  0.11681753303E+02  0.20809633279E+02  0.00000000000E+00 0. -1.
        -12    1    4    4    0    0 -0.50934797832E+02  0.20323794817E+03  0.43908996489E+02  0.21407479342E+03  0.00000000000E+00 0.  1.
</event>
<event>
12    1  0.8297444E-002  0.1948379E+03  0.7818608E-02  0.1154990E+00
         21   -1    0    0  501  502  0.00000000000E+00  0.00000000000E+00  0.77544063874E+02  0.77544063874E+02  0.00000000000E+00 0. -1.
         21   -1    0    0  502  503 -0.00000000000E+00 -0.00000000000E+00 -0.50763977429E+03  0.50763977429E+03  0.00000000000E+00 0.  1.
         -6    2    1    2    0  503  0.72781913571E+02 -0.40082754631E+02 -0.14903386931E+03  0.24530163782E+03  0.17623270172E+03 0.  0.
        -24    2    3    3    0    0 -0.75394994566E+01  0.10462435174E+02 -0.19951302069E+02  0.85018311278E+02  0.81631808730E+02 0.  0.
          6    2    1    2  501    0 -0.72781913571E+02  0.40082754631E+02 -0.28106184111E+03  0.33988220034E+03  0.17210554152E+03 0.  0.
         24    2    5    5    0    0 -0.57920569425E+02  0.50235349636E+02 -0.29614493670E+03  0.31593382863E+03  0.78955543358E+02 0.  0.
          5    1    5    5  501    0 -0.14861344146E+02 -0.10152595005E+02  0.15083095587E+02  0.23948371712E+02  0.47000000000E+01 0. -1.
        -11    1    6    6    0    0 -0.20348769335E+02  0.45373830580E+00 -0.20188378468E+03  0.20290722217E+03  0.00000000000E+00 0.  1.
         12    1    6    6    0    0 -0.37571800090E+02  0.49781611331E+02 -0.94261152015E+02  0.11302660646E+03  0.00000000000E+00 0. -1.
         -5    1    3    3    0  503  0.80321413027E+02 -0.50545189806E+02 -0.12908256724E+03  0.16028332655E+03  0.47000000000E+01 0.  1.
         13    1    4    4    0    0  0.22685590826E+02 -0.25937135042E+02 -0.14528839128E+02  0.37395964645E+02  0.00000000000E+00 0. -1.
        -14    1    4    4    0    0 -0.30225090283E+02  0.36399570216E+02 -0.54224629411E+01  0.47622346633E+02  0.00000000000E+00 0.  1.
</event>
<event>
12    1  0.8297444E-002  0.1952985E+03  0.7818608E-02  0.1153970E+00
         21   -1    0    0  501  502  0.00000000000E+00  0.00000000000E+00  0.14514130524E+03  0.14514130524E+03  0.00000000000E+00 0.  1.
         21   -1    0    0  502  503 -0.00000000000E+00 -0.00000000000E+00 -0.28384173520E+03  0.28384173520E+03  0.00000000000E+00 0.  1.
         -6    2    1    2    0  503 -0.37030512348E+02  0.85358421419E+02 -0.90765476600E+01  0.19458199576E+03  0.17065301170E+03 0.  0.
        -24    2    3    3    0    0 -0.33355143073E+02 -0.40608176744E+01 -0.45032567891E+02  0.98019922195E+02  0.80317601848E+02 0.  0.
          6    2    1    2  501    0  0.37030512348E+02 -0.85358421419E+02 -0.12962388230E+03  0.23440104468E+03  0.17170958021E+03 0.  0.
         24    2    5    5    0    0 -0.32937196607E+02 -0.91106829633E+02 -0.79411181872E+02  0.14796071973E+03  0.78745955143E+02 0.  0.
          5    1    5    5  501    0  0.69967708955E+02  0.57484082141E+01 -0.50212700429E+02  0.86440324952E+02  0.47000000000E+01 0. -1.
        -11    1    6    6    0    0 -0.20285382966E+01 -0.91440346076E+02 -0.71391891103E+02  0.11602695365E+03  0.00000000000E+00 0.  1.
         12    1    6    6    0    0 -0.30908658310E+02  0.33351644317E+00 -0.80192907696E+01  0.31933766082E+02  0.00000000000E+00 0. -1.
         -5    1    3    3    0  503 -0.36753692749E+01  0.89419239094E+02  0.35956020231E+02  0.96562073560E+02  0.47000000000E+01 0.  1.
         11    1    4    4    0    0 -0.51085020524E+02  0.20271593068E+02 -0.18796045093E+02  0.58085352014E+02  0.00000000000E+00 0. -1.
        -12    1    4    4    0    0  0.17729877451E+02 -0.24332410743E+02 -0.26236522798E+02  0.39934570181E+02  0.00000000000E+00 0.  1.
</event>
<event>
12    1  0.8297444E-002  0.2633367E+03  0.7818608E-02  0.1105378E+00
         21   -1    0    0  503  502  0.00000000000E+00  0.00000000000E+00  0.19876396726E+03  0.19876396726E+03  0.00000000000E+00 0.  1.
         21   -1    0    0  501  503 -0.00000000000E+00 -0.00000000000E+00 -0.34958658924E+03  0.34958658924E+03  0.00000000000E+00 0.  1.
          6    2    1    2  501    0 -0.15886783991E+03 -0.11723421897E+03 -0.99669554620E+02  0.28156745236E+03  0.17425084635E+03 0.  0.
         24    2    3    3    0    0 -0.43039534639E+02 -0.16392615530E+02  0.97128795251E+01  0.92962489047E+02  0.80165859037E+02 0.  0.
         -6    2    1    2    0  502  0.15886783991E+03  0.11723421897E+03 -0.51153067355E+02  0.26678310414E+03  0.17197015932E+03 0.  0.
        -24    2    5    5    0    0  0.11303116192E+03  0.13995438429E+03 -0.31846335285E+01  0.19649606689E+03  0.78976510213E+02 0.  0.
          5    1    3    3  501    0 -0.11582830527E+03 -0.10084160344E+03 -0.10938243415E+03  0.18860496331E+03  0.47000000000E+01 0. -1.
        -11    1    4    4    0    0 -0.50887579352E+02  0.19372161697E+02  0.13651742926E+02  0.56135518757E+02  0.00000000000E+00 0.  1.
         12    1    4    4    0    0  0.78480447131E+01 -0.35764777226E+02 -0.39388634008E+01  0.36826970290E+02  0.00000000000E+00 0. -1.
         -5    1    5    5    0  502  0.45836677990E+02 -0.22720165317E+02 -0.47968433827E+02  0.70287037247E+02  0.47000000000E+01 0.  1.
         13    1    6    6    0    0  0.16761190687E+01 -0.95262611455E+01  0.25718857916E+01  0.10008677389E+02  0.00000000000E+00 0. -1.
        -14    1    6    6    0    0  0.11135504285E+03  0.14948064544E+03 -0.57565193201E+01  0.18648738950E+03  0.00000000000E+00 0.  1.
</event>
<event>
12    1  0.8297444E-002  0.2077831E+03  0.7818608E-02  0.1143596E+00
         21   -1    0    0  501  502  0.00000000000E+00  0.00000000000E+00  0.13104501494E+03  0.13104501494E+03  0.00000000000E+00 0. -1.
         21   -1    0    0  502  503 -0.00000000000E+00 -0.00000000000E+00 -0.40780638205E+03  0.40780638205E+03  0.00000000000E+00 0.  1.
         -6    2    1    2    0  503  0.36997402743E+02  0.10584235750E+03 -0.25767082771E+03  0.33019314132E+03  0.17338351326E+03 0.  0.
        -24    2    3    3    0    0  0.71388932662E+02  0.12557701819E+03 -0.22212752713E+03  0.27673614572E+03  0.79851667705E+02 0.  0.
          6    2    1    2  501    0 -0.36997402743E+02 -0.10584235750E+03 -0.19090539398E+02  0.20865825567E+03  0.17493543527E+03 0.  0.
         24    2    5    5    0    0  0.12938678863E+01 -0.11612283468E+03 -0.59004445886E+02  0.15220367615E+03  0.78728950026E+02 0.  0.
          5    1    5    5  501    0 -0.38291270629E+02  0.10280477176E+02  0.39913906488E+02  0.56454579517E+02  0.47000000000E+01 0. -1.
        -13    1    6    6    0    0 -0.22560908574E+02 -0.48067840373E+02 -0.59947818970E+02  0.80082787620E+02  0.00000000000E+00 0.  1.
         14    1    6    6    0    0  0.23854776460E+02 -0.68054994306E+02  0.94337308410E+00  0.72120888533E+02  0.00000000000E+00 0. -1.
         -5    1    3    3    0  503 -0.34391529919E+02 -0.19734660683E+02 -0.35543300576E+02  0.53456995597E+02  0.47000000000E+01 0.  1.
         13    1    4    4    0    0  0.78530484932E+02  0.79972501173E+02 -0.11753448727E+03  0.16240995569E+03  0.00000000000E+00 0. -1.
        -14    1    4    4    0    0 -0.71415522699E+01  0.45604517014E+02 -0.10459303986E+03  0.11432619003E+03  0.00000000000E+00 0.  1.
</event>
<event>
12    1  0.8297444E-002  0.2012001E+03  0.7818608E-02  0.1148898E+00
         21   -1    0    0  501  502  0.00000000000E+00  0.00000000000E+00  0.87245706573E+02  0.87245706573E+02  0.00000000000E+00 0.  1.
         21   -1    0    0  502  503 -0.00000000000E+00 -0.00000000000E+00 -0.51183861756E+03  0.51183861756E+03  0.00000000000E+00 0.  1.
         -6    2    1    2    0  503  0.10427519179E+03 -0.87614859409E+01 -0.11935404320E+03  0.23393771943E+03  0.17184699498E+03 0.  0.
        -24    2    3    3    0    0  0.29374813643E+02 -0.63006419128E+02 -0.46740210704E+02  0.11626258147E+03  0.80620419413E+02 0.  0.
          6    2    1    2  501    0 -0.10427519179E+03  0.87614859409E+01 -0.30523886780E+03  0.36514660471E+03  0.17091283526E+03 0.  0.
         24    2    5    5    0    0  0.10187109033E+02  0.23425856102E+02 -0.14242210303E+03  0.16552683878E+03  0.80389868754E+02 0.  0.
          5    1    5    5  501    0 -0.11446230083E+03 -0.14664370161E+02 -0.16281676476E+03  0.19961976593E+03  0.47000000000E+01 0. -1.
        -13    1    6    6    0    0 -0.37839638423E+01 -0.75381134163E+01 -0.12856160260E+03  0.12883798818E+03  0.00000000000E+00 0.  1.
         14    1    6    6    0    0  0.13971072875E+02  0.30963969518E+02 -0.13860500435E+02  0.36688850594E+02  0.00000000000E+00 0. -1.
         -5    1    3    3    0  503  0.74900378152E+02  0.54244933187E+02 -0.72613832492E+02  0.11767513796E+03  0.47000000000E+01 0.  1.
         13    1    4    4    0    0  0.66564965759E+01 -0.57490977688E+02 -0.64680983707E+02  0.86793727397E+02  0.00000000000E+00 0. -1.
        -14    1    4    4    0    0  0.22718317067E+02 -0.55154414397E+01  0.17940773003E+02  0.29468854076E+02  0.00000000000E+00 0.  1.
</event>
<event>
12    1  0.8297444E-002  0.1778261E+03  0.7818608E-02  0.1170114E+00
         21   -1    0    0  503  502  0.00000000000E+00  0.00000000000E+00  0.44424963224E+02  0.44424963224E+02  0.00000000000E+00 0. -1.
         21   -1    0    0  501  503 -0.00000000000E+00 -0.00000000000E+00 -0.74902451589E+03  0.74902451589E+03  0.00000000000E+00 0. -1.
          6    2    1    2  501    0  0.36881264171E+02  0.14020647774E+02 -0.44360738638E+03  0.47763460001E+03  0.17259922265E+03 0.  0.
         24    2    3    3    0    0 -0.32294103859E+02  0.29531145818E+02 -0.34015357662E+03  0.35213325401E+03  0.79864730504E+02 0.  0.
         -6    2    1    2    0  502 -0.36881264171E+02 -0.14020647774E+02 -0.26099216628E+03  0.31581487910E+03  0.17339354311E+03 0.  0.
        -24    2    5    5    0    0 -0.65150186030E+02 -0.39702199424E+02 -0.25440847355E+03  0.27677503986E+03  0.77845615790E+02 0.  0.
          5    1    3    3  501    0  0.69175368030E+02 -0.15510498044E+02 -0.10345380977E+03  0.12550134600E+03  0.47000000000E+01 0. -1.
        -13    1    4    4    0    0 -0.14051174061E+02 -0.19530856979E+02 -0.21683136062E+03  0.21816216174E+03  0.00000000000E+00 0.  1.
         14    1    4    4    0    0 -0.18242929798E+02  0.49062002796E+02 -0.12332221599E+03  0.13397109227E+03  0.00000000000E+00 0. -1.
         -5    1    5    5    0  502  0.28268921859E+02  0.25681551650E+02 -0.65836927347E+01  0.39039839245E+02  0.47000000000E+01 0.  1.
         13    1    6    6    0    0 -0.92593615039E+01  0.22650502605E+02 -0.72530340725E+02  0.76546922665E+02  0.00000000000E+00 0. -1.
        -14    1    6    6    0    0 -0.55890824526E+02 -0.62352702030E+02 -0.18187813282E+03  0.20022811719E+03  0.00000000000E+00 0.  1.
</event>
<event>
12    1  0.8297444E-002  0.1962364E+03  0.7818608E-02  0.1153051E+00
         21   -1    0    0  503  502  0.00000000000E+00  0.00000000000E+00  0.29916940416E+04  0.29916940416E+04  0.00000000000E+00 0.  1.
         21   -1    0    0  501  503 -0.00000000000E+00 -0.00000000000E+00 -0.28181918195E+02  0.28181918195E+02  0.00000000000E+00 0. -1.
          6    2    1    2  501    0 -0.89531198947E+02 -0.26237161632E+02  0.25965143516E+04  0.26039192575E+04  0.17263979063E+03 0.  0.
         24    2    3    3    0    0 -0.60212458926E+02  0.51848165095E+02  0.15745784926E+04  0.15785744878E+04  0.79285634726E+02 0.  0.
         -6    2    1    2    0  502  0.89531198947E+02  0.26237161632E+02  0.36699777178E+03  0.41595670227E+03  0.17212899068E+03 0.  0.
        -24    2    5    5    0    0  0.23361531147E+02 -0.13536767118E+02  0.64484185926E+02  0.10371168634E+03  0.76608736102E+02 0.  0.
          5    1    3    3  501    0 -0.29318740022E+02 -0.78085326727E+02  0.10219358590E+04  0.10253447697E+04  0.47000000000E+01 0. -1.
        -13    1    4    4    0    0 -0.77999072528E+02  0.31891049072E+02  0.10854668618E+04  0.10887328425E+04  0.00000000000E+00 0.  1.
         14    1    4    4    0    0  0.17786613602E+02  0.19957116023E+02  0.48911163079E+03  0.48984164531E+03  0.00000000000E+00 0. -1.
         -5    1    5    5    0  502  0.66169667801E+02  0.39773928750E+02  0.30251358586E+03  0.31224501593E+03  0.47000000000E+01 0.  1.
         11    1    6    6    0    0 -0.26555478174E+02 -0.16428498233E+02  0.24941578466E+02  0.39964625754E+02  0.00000000000E+00 0. -1.
        -12    1    6    6    0    0  0.49917009321E+02  0.28917311155E+01  0.39542607460E+02  0.63747060584E+02  0.00000000000E+00 0.  1.
</event>
<event>
12    1  0.8297444E-002  0.2041107E+03  0.7818608E-02  0.1146489E+00
         21   -1    0    0  503  502  0.00000000000E+00  0.00000000000E+00  0.36435518935E+03  0.36435518935E+03  0.00000000000E+00 0. -1.
         21   -1    0    0  501  503 -0.00000000000E+00 -0.00000000000E+00 -0.19655713878E+03  0.19655713878E+03  0.00000000000E+00 0.  1.
          6    2    1    2  501    0 -0.76903173635E+02  0.79474856274E+02 -0.98099015019E+02  0.22570729350E+03  0.17055795114E+03 0.  0.
         24    2    3    3    0    0 -0.88942408412E+02  0.10239211538E+03 -0.39975611471E+02  0.16190632189E+03  0.78871479322E+02 0.  0.
         -6    2    1    2    0  502  0.76903173635E+02 -0.79474856274E+02  0.26589706558E+03  0.33520503463E+03  0.17155411641E+03 0.  0.
        -24    2    5    5    0    0  0.66285820354E+01 -0.55769514605E+02  0.23573837135E+03  0.25500467125E+03  0.79376481227E+02 0.  0.
          5    1    3    3  501    0  0.12039234777E+02 -0.22917259102E+02 -0.58123403548E+02  0.63800971613E+02  0.47000000000E+01 0. -1.
        -11    1    4    4    0    0 -0.62711225006E+01  0.49142211170E+02 -0.39834763110E+02  0.63569585874E+02  0.00000000000E+00 0.  1.
         12    1    4    4    0    0 -0.82671285912E+02  0.53249904205E+02 -0.14084836111E+00  0.98336736017E+02  0.00000000000E+00 0. -1.
         -5    1    5    5    0  502  0.70274591600E+02 -0.23705341669E+02  0.30158694229E+02  0.80200363377E+02  0.47000000000E+01 0.  1.
         11    1    6    6    0    0 -0.27963048069E+02  0.75834431273E+00  0.10171284107E+03  0.10548937947E+03  0.00000000000E+00 0. -1.
        -12    1    6    6    0    0  0.34591630104E+02 -0.56527858918E+02  0.13402553029E+03  0.14951529178E+03  0.00000000000E+00 0.  1.
</event>
<event>
12    1  0.8297444E-002  0.1825939E+03  0.7818608E-02  0.1165539E+00
         21   -1    0    0  501  502  0.00000000000E+00  0.00000000000E+00  0.56047079002E+02  0.56047079002E+02  0.00000000000E+00 0. -1.
         21   -1    0    0  502  503 -0.00000000000E+00 -0.00000000000E+00 -0.75343789238E+03  0.75343789238E+03  0.00000000000E+00 0. -1.
         -6    2    1    2    0  503  0.15317439432E+02  0.55688725026E+02 -0.53685046138E+03  0.56705285830E+03  0.17321855610E+03 0.  0.
        -24    2    3    3    0    0  0.52668810464E+02  0.40412952386E+02 -0.18168912488E+03  0.20957539175E+03  0.80645498393E+02 0.  0.
          6    2    1    2  501    0 -0.15317439432E+02 -0.55688725026E+02 -0.16054035201E+03  0.24243211309E+03  0.17223317563E+03 0.  0.
         24    2    5    5    0    0  0.63133398959E+01 -0.22469016623E+02 -0.65972289346E+01  0.83397479183E+02  0.79792863940E+02 0.  0.
          5    1    5    5  501    0 -0.21630779328E+02 -0.33219708402E+02 -0.15394312307E+03  0.15903463391E+03  0.47000000000E+01 0. -1.
        -11    1    6    6    0    0  0.13218058722E+02  0.74635423532E+01 -0.37113403261E+02  0.40097708693E+02  0.00000000000E+00 0.  1.
         12    1    6    6    0    0 -0.69047188265E+01 -0.29932558977E+02  0.30516174326E+02  0.43299770490E+02  0.00000000000E+00 0. -1.
         -5    1    3    3    0  503 -0.37351371032E+02  0.15275772640E+02 -0.35516133650E+03  0.35747746655E+03  0.47000000000E+01 0.  1.
         11    1    4    4    0    0  0.86248306865E+01  0.10322167652E+02 -0.14311967833E+03  0.14375039887E+03  0.00000000000E+00 0. -1.
        -12    1    4    4    0    0  0.44043979777E+02  0.30090784734E+02 -0.38569446546E+02  0.65824992878E+02  0.00000000000E+00 0.  1.
</event>
<event>
12    1  0.8297444E-002  0.1884647E+03  0.7818608E-02  0.1160054E+00
         21   -1    0    0  503  502  0.00000000000E+00  0.00000000000E+00  0.73431924473E+02  0.73431924473E+02  0.00000000000E+00 0. -1.
         21   -1    0    0  501  503 -0.00000000000E+00 -0.00000000000E+00 -0.48305614384E+03  0.48305614384E+03  0.00000000000E+00 0. -1.
          6    2    1    2  501    0 -0.63446626196E+02  0.42897463070E+02 -0.18924579048E+03  0.26708219799E+03  0.17220123273E+03 0.  0.
         24    2    3    3    0    0 -0.71313871033E+02  0.46731106991E+02 -0.21233282899E+03  0.24194872004E+03  0.78641517658E+02 0.  0.
         -6    2    1    2    0  502  0.63446626196E+02 -0.42897463070E+02 -0.22037842888E+03  0.28940587032E+03  0.17124088048E+03 0.  0.
        -24    2    5    5    0    0  0.63759606508E+02  0.34785632348E+02 -0.10617920293E+03  0.15120921885E+03  0.79466200929E+02 0.  0.
          5    1    3    3  501    0  0.78672448370E+01 -0.38336439206E+01  0.23087038505E+02  0.25133477952E+02  0.47000000000E+01 0. -1.
        -11    1    4    4    0    0 -0.50041511374E+02  0.66270096513E+02 -0.18207459909E+03  0.20011756092E+03  0.00000000000E+00 0.  1.
         12    1    4    4    0    0 -0.21272359659E+02 -0.19538989522E+02 -0.30258229893E+02  0.41831159119E+02  0.00000000000E+00 0. -1.
         -5    1    5    5    0  502 -0.31298031187E+00 -0.77683095418E+02 -0.11419922595E+03  0.13819665147E+03  0.47000000000E+01 0.  1.
         11    1    6    6    0    0  0.84135179176E+01  0.45644372370E+02 -0.26060817770E+02  0.53229336231E+02  0.00000000000E+00 0. -1.
        -12    1    6    6    0    0  0.55346088590E+02 -0.10858740022E+02 -0.80118385162E+02  0.97979882619E+02  0.00000000000E+00 0.  1.
</event>
<event>
12    1  0.8297444E-002  0.2041717E+03  0.7818608E-02  0.1146320E+00
         21   -1    0    0  503  502  0.00000000000E+00  0.00000000000E+00  0.91070200682E+03  0.91070200682E+03  0.00000000000E+00 0. -1.
         21   -1    0    0  501  503 -0.00000000000E+00 -0.00000000000E+00 -0.53023393770E+02  0.53023393770E+02  0.00000000000E+00 0. -1.
          6    2    1    2  501    0  0.18954999404E+02 -0.10742459968E+03  0.25017716428E+03  0.32291594915E+03  0.17258841232E+03 0.  0.
         24    2    3    3    0    0  0.50239419316E+02 -0.11608078818E+03  0.24869645050E+03  0.29008414990E+03  0.79373426886E+02 0.  0.
         -6    2    1    2    0  502 -0.18954999404E+02  0.10742459968E+03  0.60750144877E+03  0.64080945144E+03  0.17227712030E+03 0.  0.
        -24    2    5    5    0    0  0.34099232558E+02  0.25802200236E+02  0.40633600214E+03  0.41727736305E+03  0.84752226427E+02 0.  0.
          5    1    3    3  501    0 -0.31284419912E+02  0.86561884990E+01  0.14807137820E+01  0.32831799248E+02  0.47000000000E+01 0. -1.
        -11    1    4    4    0    0 -0.11282531167E+02 -0.36021604406E+02  0.12409931952E+03  0.12971311652E+03  0.00000000000E+00 0.  1.
         12    1    4    4    0    0  0.61521950483E+02 -0.80059183775E+02  0.12459713098E+03  0.16037103338E+03  0.00000000000E+00 0. -1.
         -5    1    5    5    0  502 -0.53054231962E+02  0.81622399446E+02  0.20116544663E+03  0.22353208838E+03  0.47000000000E+01 0.  1.
         13    1    6    6    0    0 -0.13569232006E+02  0.80315411467E+01  0.28847551405E+03  0.28890612994E+03  0.00000000000E+00 0. -1.
        -14    1    6    6    0    0  0.47668464564E+02  0.17770659090E+02  0.11786048809E+03  0.12837123311E+03  0.00000000000E+00 0.  1.
</event>
<event>
12    1  0.8297444E-002  0.1830216E+03  0.7818608E-02  0.1165572E+00
         21   -1    0    0  501  502  0.00000000000E+00  0.00000000000E+00  0.62412331565E+03  0.62412331565E+03  0.00000000000E+00 0. -1.
         21   -1    0    0  502  503 -0.00000000000E+00 -0.00000000000E+00 -0.11052211897E+03  0.11052211897E+03  0.00000000000E+00 0. -1.
         -6    2    1    2    0  503  0.18924819981E+02  0.57192947046E+02 -0.75768970451E+01  0.18317833008E+03  0.17282276829E+03 0.  0.
        -24    2    3    3    0    0 -0.55600707001E+02  0.43020873274E+02 -0.37662835626E+01  0.10707634179E+03  0.80677902322E+02 0.  0.
          6    2    1    2  501    0 -0.18924819981E+02 -0.57192947046E+02  0.52117809372E+03  0.55146710454E+03  0.16988284203E+03 0.  0.
         24    2    5    5    0    0  0.53348607250E+02 -0.38121328929E+02  0.33645030923E+03  0.35213416882E+03  0.80624764518E+02 0.  0.
          5    1    5    5  501    0 -0.72273427231E+02 -0.19071618116E+02  0.18472778449E+03  0.19933293572E+03  0.47000000000E+01 0. -1.
        -13    1    6    6    0    0  0.31524323966E+02  0.24324120737E+01  0.34920635034E+02  0.47107859017E+02  0.00000000000E+00 0.  1.
         14    1    6    6    0    0  0.21824283285E+02 -0.40553741003E+02  0.30152967420E+03  0.30502630980E+03  0.00000000000E+00 0. -1.
         -5    1    3    3    0  503  0.74525526982E+02  0.14172073772E+02 -0.38106134825E+01  0.76101988293E+02  0.47000000000E+01 0.  1.
         11    1    4    4    0    0 -0.63765405100E+02  0.14544602266E+01  0.44081190410E+01  0.63934136857E+02  0.00000000000E+00 0. -1.
        -12    1    4    4    0    0  0.81646980986E+01  0.41566413047E+02 -0.81744026036E+01  0.43142204934E+02  0.00000000000E+00 0.  1.
</event>
<event>
12    1  0.8297444E-002  0.1760761E+03  0.7818608E-02  0.1171713E+00
         21   -1    0    0  501  502  0.00000000000E+00  0.00000000000E+00  0.11670718477E+03  0.11670718477E+03  0.00000000000E+00 0.  1.
         21   -1    0    0  502  503 -0.00000000000E+00 -0.00000000000E+00 -0.26543566807E+03  0.26543566807E+03  0.00000000000E+00 0.  1.
         -6    2    1    2    0  503 -0.35209712556E+02  0.11932850946E+02 -0.78658478439E+02  0.19263665525E+03  0.17187090483E+03 0.  0.
        -24    2    3    3    0    0 -0.10489320899E+02  0.72735038705E+02 -0.64383055343E+02  0.12530255167E+03  0.78454699876E+02 0.  0.
          6    2    1    2  501    0  0.35209712556E+02 -0.11932850946E+02 -0.70070004862E+02  0.18950619758E+03  0.17210658486E+03 0.  0.
         24    2    5    5    0    0  0.59805017306E+02 -0.29408290487E+02  0.91439313397E+01  0.10461062826E+03  0.80114196118E+02 0.  0.
          5    1    5    5  501    0 -0.24595304750E+02  0.17475439540E+02 -0.79213936202E+02  0.84895569328E+02  0.47000000000E+01 0. -1.
        -11    1    6    6    0    0  0.48834505655E+02  0.16801439886E+02  0.20851911371E+02  0.55694699323E+02  0.00000000000E+00 0.  1.
         12    1    6    6    0    0  0.10970511650E+02 -0.46209730373E+02 -0.11707980031E+02  0.48915928934E+02  0.00000000000E+00 0. -1.
         -5    1    3    3    0  503 -0.24720391657E+02 -0.60802187758E+02 -0.14275423096E+02  0.67334103576E+02  0.47000000000E+01 0.  1.
         11    1    4    4    0    0  0.88193998885E+01 -0.13833970938E+02 -0.20757559358E+02  0.26458209252E+02  0.00000000000E+00 0. -1.
        -12    1    4    4    0    0 -0.19308720787E+02  0.86569009643E+02 -0.43625495985E+02  0.98844342422E+02  0.00000000000E+00 0.  1.
</event>
<event>
12    1  0.8297444E-002  0.2575382E+03  0.7818608E-02  0.1110255E+00
         21   -1    0    0  503  502  0.00000000000E+00  0.00000000000E+00  0.10189088531E+04  0.10189088531E+04  0.00000000000E+00 0.  1.
         21   -1    0    0  501  503 -0.00000000000E+00 -0.00000000000E+00 -0.63228830464E+02  0.63228830464E+02  0.00000000000E+00 0. -1.
          6    2    1    2  501    0  0.11549289951E+03  0.13462075713E+03  0.54636936873E+03  0.60402433100E+03  0.18672050573E+03 0.  0.
         24    2    3    3    0    0  0.14530915077E+03  0.12245895214E+03  0.35957952478E+03  0.41442091821E+03  0.79600995892E+02 0.  0.
         -6    2    1    2    0  502 -0.11549289951E+03 -0.13462075713E+03  0.40931065392E+03  0.47811335259E+03  0.17203432338E+03 0.  0.
        -24    2    5    5    0    0  0.64519404021E+01 -0.62066310365E+02  0.21240755659E+03  0.23536325173E+03  0.79906418710E+02 0.  0.
          5    1    3    3  501    0 -0.29816251252E+02  0.12161804985E+02  0.18678984395E+03  0.18960341279E+03  0.47000000000E+01 0. -1.
        -13    1    4    4    0    0  0.11282802384E+03  0.56629648232E+02  0.17501903847E+03  0.21579792365E+03  0.00000000000E+00 0.  1.
         14    1    4    4    0    0  0.32481126924E+02  0.65829303908E+02  0.18456048631E+03  0.19862299456E+03  0.00000000000E+00 0. -1.
         -5    1    5    5    0  502 -0.12194483992E+03 -0.72554446760E+02  0.19690309733E+03  0.24275010086E+03  0.47000000000E+01 0.  1.
         13    1    6    6    0    0 -0.32591836406E+02 -0.62717508367E+01  0.64857203284E+02  0.72856156066E+02  0.00000000000E+00 0. -1.
        -14    1    6    6    0    0  0.39043776808E+02 -0.55794559528E+02  0.14755035331E+03  0.16250709566E+03  0.00000000000E+00 0.  1.
</event>
<event>
12    1  0.8297444E-002  0.2526597E+03  0.7818608E-02  0.1111649E+00
         21   -1    0    0  503  502  0.00000000000E+00  0.00000000000E+00  0.72494923768E+03  0.72494923768E+03  0.00000000000E+00 0.  1.
         21   -1    0    0  501  503 -0.00000000000E+00 -0.00000000000E+00 -0.90300794643E+02  0.90300794643E+02  0.00000000000E+00 0.  1.
          6    2    1    2  501    0  0.13279073308E+03 -0.12866136949E+03  0.25258277367E+03  0.35719859960E+03  0.17206293967E+03 0.  0.
         24    2    3    3    0    0  0.85521188477E+02 -0.12013713918E+03  0.25892851592E+03  0.30852180026E+03  0.79968237371E+02 0.  0.
         -6    2    1    2    0  502 -0.13279073308E+03  0.12866136949E+03  0.38206566937E+03  0.45805143273E+03  0.17219120919E+03 0.  0.
        -24    2    5    5    0    0 -0.92990521199E+02  0.85741546143E+01  0.14974789357E+03  0.19347888126E+03  0.79302539066E+02 0.  0.
          5    1    3    3  501    0  0.47269544604E+02 -0.85242303029E+01 -0.63457422488E+01  0.48676799340E+02  0.47000000000E+01 0. -1.
        -13    1    4    4    0    0  0.67227595676E+02 -0.65012176310E+02  0.89625799844E+02  0.12953345779E+03  0.00000000000E+00 0.  1.
         14    1    4    4    0    0  0.18293592801E+02 -0.55124962873E+02  0.16930271608E+03  0.17898834247E+03  0.00000000000E+00 0. -1.
         -5    1    5    5    0  502 -0.39800211882E+02  0.12008721487E+03  0.23231777580E+03  0.26457255147E+03  0.47000000000E+01 0.  1.
         11    1    6    6    0    0 -0.32492420646E+02  0.34963411885E+02  0.28946268446E+02  0.55821895588E+02  0.00000000000E+00 0. -1.
        -12    1    6    6    0    0 -0.60498100553E+02 -0.26389257271E+02  0.12080162513E+03  0.13765698567E+03  0.00000000000E+00 0.  1.
</event>
<event>
12    1  0.8297444E-002  0.2302516E+03  0.7818608E-02  0.1126515E+00
         21   -1    0    0  503  502  0.00000000000E+00  0.00000000000E+00  0.91144161533E+03  0.91144161533E+03  0.00000000000E+00 0.  1.
         21   -1    0    0  501  503 -0.00000000000E+00 -0.00000000000E+00 -0.11216066074E+03  0.11216066074E+03  0.00000000000E+00 0.  1.
          6    2    1    2  501    0 -0.12047590352E+03 -0.94818273962E+02  0.44155886374E+02  0.23415331945E+03  0.17138578208E+03 0.  0.
         24    2    3    3    0    0 -0.73718004882E+02 -0.11693634660E+03 -0.84729589279E+01  0.16021148028E+03  0.80544856941E+02 0.  0.
         -6    2    1    2    0  502  0.12047590352E+03  0.94818273962E+02  0.75512506822E+03  0.78944895662E+03  0.17178718825E+03 0.  0.
        -24    2    5    5    0    0  0.13643021279E+03  0.11161226498E+03  0.72933421259E+03  0.75446558410E+03  0.78863320271E+02 0.  0.
          5    1    3    3  501    0 -0.46757898637E+02  0.22118072636E+02  0.52628845301E+02  0.73941839170E+02  0.47000000000E+01 0. -1.
        -11    1    4    4    0    0 -0.60975174995E+02 -0.35056291103E+02  0.19095235792E+02  0.72880337139E+02  0.00000000000E+00 0.  1.
         12    1    4    4    0    0 -0.12742829888E+02 -0.81880055495E+02 -0.27568194720E+02  0.87331143136E+02  0.00000000000E+00 0. -1.
         -5    1    5    5    0  502 -0.15954309271E+02 -0.16793991018E+02  0.25790855638E+02  0.34983372524E+02  0.47000000000E+01 0.  1.
         13    1    6    6    0    0 -0.91800973367E+01  0.33562944183E+01  0.19554060647E+02  0.21860928322E+02  0.00000000000E+00 0. -1.
        -14    1    6    6    0    0  0.14561031013E+03  0.10825597056E+03  0.70978015194E+03  0.73260465578E+03  0.00000000000E+00 0.  1.
</event>
<event>
12    1  0.8297444E-002  0.2294412E+03  0.7818608E-02  0.1127036E+00
         21   -1    0    0  503  502  0.00000000000E+00  0.00000000000E+00  0.47669988793E+03  0.47669988793E+03  0.00000000000E+00 0.  1.
         21   -1    0    0  501  503 -0.00000000000E+00 -0.00000000000E+00 -0.14520540305E+03  0.14520540305E+03  0.00000000000E+00 0.  1.
          6    2    1    2  501    0 -0.54829690599E+02  0.14209295127E+03  0.13563299021E+02  0.22982939422E+03  0.17158346539E+03 0.  0.
         24    2    3    3    0    0 -0.51179932010E+02  0.95022868208E+02 -0.56699887545E+02  0.14504779926E+03  0.78582796465E+02 0.  0.
         -6    2    1    2    0  502  0.54829690599E+02 -0.14209295127E+03  0.31793118586E+03  0.39207589676E+03  0.17160002363E+03 0.  0.
        -24    2    5    5    0    0  0.70821898581E+02 -0.23154969922E+02  0.16293854444E+03  0.19599733339E+03  0.79461257724E+02 0.  0.
          5    1    3    3  501    0 -0.36497585887E+01  0.47070083058E+02  0.70263186566E+02  0.84781594956E+02  0.47000000000E+01 0. -1.
        -13    1    4    4    0    0  0.86714838200E+01  0.49302053750E+02 -0.47786294474E+02  0.69205614477E+02  0.00000000000E+00 0.  1.
         14    1    4    4    0    0 -0.59851415830E+02  0.45720814458E+02 -0.89135930710E+01  0.75842184785E+02  0.00000000000E+00 0. -1.
         -5    1    5    5    0  502 -0.15992207982E+02 -0.11893798134E+03  0.15499264142E+03  0.19607856338E+03  0.47000000000E+01 0.  1.
         11    1    6    6    0    0  0.44937739185E+02  0.19750497606E+02  0.12126841243E+03  0.13082626041E+03  0.00000000000E+00 0. -1.
        -12    1    6    6    0    0  0.25884159396E+02 -0.42905467528E+02  0.41670132012E+02  0.65171072980E+02  0.00000000000E+00 0.  1.
</event>
<event>
12    1  0.8297444E-002  0.2041874E+03  0.7818608E-02  0.1146377E+00
         21   -1    0    0  503  502  0.00000000000E+00  0.00000000000E+00  0.20113442530E+04  0.20113442530E+04  0.00000000000E+00 0.  1.
         21   -1    0    0  501  503 -0.00000000000E+00 -0.00000000000E+00 -0.11098552893E+03  0.11098552893E+03  0.00000000000E+00 0.  1.
          6    2    1    2  501    0  0.11210324458E+03 -0.13944406554E+02 -0.68340102742E+01  0.20430170609E+03  0.17009085659E+03 0.  0.
         24    2    3    3    0    0  0.51446767903E+02 -0.71503414861E+02 -0.10524362909E+00  0.12028019753E+03  0.81901200095E+02 0.  0.
         -6    2    1    2    0  502 -0.11210324458E+03  0.13944406554E+02  0.19071927344E+04  0.19180280759E+04  0.16936938876E+03 0.  0.
        -24    2    5    5    0    0 -0.34881053475E+02 -0.27476714188E+02  0.14194539451E+04  0.14224575031E+04  0.81019677355E+02 0.  0.
          5    1    3    3  501    0  0.60656476678E+02  0.57559008307E+02 -0.67287666451E+01  0.84021508561E+02  0.47000000000E+01 0. -1.
        -11    1    4    4    0    0  0.35213652472E-01  0.64718390585E+01 -0.23185768732E+02  0.24072096138E+02  0.00000000000E+00 0.  1.
         12    1    4    4    0    0  0.51411554251E+02 -0.77975253919E+02  0.23080525103E+02  0.96208101391E+02  0.00000000000E+00 0. -1.
         -5    1    5    5    0  502 -0.77222191106E+02  0.41421120742E+02  0.48773878930E+03  0.49557057280E+03  0.47000000000E+01 0.  1.
         11    1    6    6    0    0  0.90169967319E+01 -0.38433591132E+02  0.38596296687E+03  0.38797662165E+03  0.00000000000E+00 0. -1.
        -12    1    6    6    0    0 -0.43898050207E+02  0.10956876944E+02  0.10334909782E+04  0.10344808814E+04  0.00000000000E+00 0.  1.
</event>
<event>
12    1  0.8297444E-002  0.1810507E+03  0.7818608E-02  0.1167483E+00
         21   -1    0    0  503  502  0.00000000000E+00  0.00000000000E+00  0.53898928792E+02  0.53898928792E+02  0.00000000000E+00 0.  1.
         21   -1    0    0  501  503 -0.00000000000E+00 -0.00000000000E+00 -0.72048737977E+03  0.72048737977E+03  0.00000000000E+00 0.  1.
          6    2    1    2  501    0 -0.55986437603E+02  0.32689763634E+02 -0.49475914655E+03  0.52684529045E+03  0.16904509793E+03 0.  0.
         24    2    3    3    0    0 -0.34271006841E+02  0.72957418986E+02 -0.44350537739E+03  0.45798250766E+03  0.80954744478E+02 0.  0.
         -6    2    1    2    0  502  0.55986437603E+02 -0.32689763634E+02 -0.17182930443E+03  0.24754101811E+03  0.16597633550E+03 0.  0.
        -24    2    5    5    0    0 -0.12495346438E+01 -0.65529647315E+02 -0.14014270156E+03  0.17418881787E+03  0.80037937606E+02 0.  0.
          5    1    3    3  501    0 -0.21715430762E+02 -0.40267655352E+02 -0.51253769163E+02  0.68862782794E+02  0.47000000000E+01 0. -1.
        -13    1    4    4    0    0 -0.56986970907E+02  0.35373672363E+02 -0.31854920667E+03  0.32553403604E+03  0.00000000000E+00 0.  1.
         14    1    4    4    0    0  0.22715964066E+02  0.37583746623E+02 -0.12495617071E+03  0.13244847161E+03  0.00000000000E+00 0. -1.
         -5    1    5    5    0  502  0.57235972247E+02  0.32839883680E+02 -0.31686602871E+02  0.73352200245E+02  0.47000000000E+01 0.  1.
         13    1    6    6    0    0  0.30838560849E+02 -0.44069587784E+02 -0.11801286129E+03  0.12969263986E+03  0.00000000000E+00 0. -1.
        -14    1    6    6    0    0 -0.32088095492E+02 -0.21460059531E+02 -0.22129840266E+02  0.44496178011E+02  0.00000000000E+00 0.  1.
</event>
<event>
12    1  0.8297444E-002  0.2164203E+03  0.7818608E-02  0.1136635E+00
         21   -1    0    0  501  502  0.00000000000E+00  0.00000000000E+00  0.25942090678E+03  0.25942090678E+03  0.00000000000E+00 0.  1.
         21   -1    0    0  502  503 -0.00000000000E+00 -0.00000000000E+00 -0.18335731588E+03  0.18335731588E+03  0.00000000000E+00 0.  1.
         -6    2    1    2    0  503  0.78138918845E+02  0.10724622740E+03  0.94642233571E+01  0.21634228013E+03  0.17060763968E+03 0.  0.
        -24    2    3    3    0    0  0.59590633269E+02  0.40893248497E+02 -0.56385388777E+02  0.12092206149E+03  0.78864006625E+02 0.  0.
          6    2    1    2  501    0 -0.78138918845E+02 -0.10724622740E+03  0.66599367541E+02  0.22643594254E+03  0.17096875852E+03 0.  0.
         24    2    5    5    0    0  0.21862278898E+02 -0.54713164233E+02  0.16521687377E+02  0.10278390525E+03  0.82583748074E+02 0.  0.
          5    1    5    5  501    0 -0.10000119774E+03 -0.52533063164E+02  0.50077680164E+02  0.12365203729E+03  0.47000000000E+01 0. -1.
        -11    1    6    6    0    0  0.23390541855E+02 -0.49111107296E+02  0.46919569115E+02  0.71836371525E+02  0.00000000000E+00 0.  1.
         12    1    6    6    0    0 -0.15282629569E+01 -0.56020569370E+01 -0.30397881737E+02  0.30947533726E+02  0.00000000000E+00 0. -1.
         -5    1    3    3    0  503  0.18548285576E+02  0.66352978899E+02  0.65849612134E+02  0.95420218637E+02  0.47000000000E+01 0.  1.
         13    1    4    4    0    0  0.27994296081E+02 -0.18730181340E+02 -0.11202345431E+01  0.33700967813E+02  0.00000000000E+00 0. -1.
        -14    1    4    4    0    0  0.31596337188E+02  0.59623429838E+02 -0.55265154234E+02  0.87221093675E+02  0.00000000000E+00 0.  1.
</event>
<event>
12    1  0.8297444E-002  0.1798821E+03  0.7818608E-02  0.1169277E+00
         21   -1    0    0  503  502  0.00000000000E+00  0.00000000000E+00  0.21658564699E+02  0.21658564699E+02  0.00000000000E+00 0.  1.
         21   -1    0    0  501  503 -0.00000000000E+00 -0.00000000000E+00 -0.25675466638E+04  0.25675466638E+04  0.00000000000E+00 0.  1.
          6    2    1    2  501    0  0.29182999431E+02  0.25959813864E+02 -0.21387578161E+04  0.21463090566E+04  0.17559046423E+03 0.  0.
         24    2    3    3    0    0  0.61839260598E+01  0.83830473904E+02 -0.14732519314E+04  0.14778794468E+04  0.81182612953E+02 0.  0.
         -6    2    1    2    0  502 -0.29182999431E+02 -0.25959813864E+02 -0.40713028298E+03  0.44289617188E+03  0.16993055156E+03 0.  0.
        -24    2    5    5    0    0 -0.56184954181E+02 -0.69884270384E+02 -0.25208975118E+03  0.27943938877E+03  0.80601296681E+02 0.  0.
          5    1    3    3  501    0  0.22999073371E+02 -0.57870660040E+02 -0.66550588469E+03  0.66842960978E+03  0.47000000000E+01 0. -1.
        -11    1    4    4    0    0  0.39268096491E+02  0.31358658847E+02 -0.86902009074E+03  0.87047186456E+03  0.00000000000E+00 0.  1.
         12    1    4    4    0    0 -0.33084170431E+02  0.52471815057E+02 -0.60423184064E+03  0.60740758223E+03  0.00000000000E+00 0. -1.
         -5    1    5    5    0  502  0.27001954750E+02  0.43924456520E+02 -0.15504053181E+03  0.16345678311E+03  0.47000000000E+01 0.  1.
         11    1    6    6    0    0 -0.58191989429E+02 -0.81113824209E+01 -0.12464934183E+03  0.13780261455E+03  0.00000000000E+00 0. -1.
        -12    1    6    6    0    0  0.20070352484E+01 -0.61772887963E+02 -0.12744040935E+03  0.14163677422E+03  0.00000000000E+00 0.  1.
</event>
<event>
12    1  0.8297444E-002  0.1799022E+03  0.7818608E-02  0.1168071E+00
         21   -1    0    0  501  502  0.00000000000E+00  0.00000000000E+00  0.19766820337E+03  0.19766820337E+03  0.00000000000E+00 0.  1.
         21   -1    0    0  502  503 -0.00000000000E+00 -0.00000000000E+00 -0.18260205509E+03  0.18260205509E+03  0.00000000000E+00 0.  1.
         -6    2    1    2    0  503  0.17606088207E+02 -0.44511328582E+02  0.69682635570E+02  0.19226027713E+03  0.17267632075E+03 0.  0.
        -24    2    3    3    0    0 -0.12001168356E+02  0.39099995735E+02  0.11188730126E+02  0.85906762054E+02  0.74712424512E+02 0.  0.
          6    2    1    2  501    0 -0.17606088207E+02  0.44511328582E+02 -0.54616487288E+02  0.18800998134E+03  0.17341729926E+03 0.  0.
         24    2    5    5    0    0  0.37070425027E+02  0.78321606391E+02 -0.28047206044E+02  0.11829145660E+03  0.75483325967E+02 0.  0.
          5    1    5    5  501    0 -0.54676513234E+02 -0.33810277810E+02 -0.26569281244E+02  0.69718524732E+02  0.47000000000E+01 0. -1.
        -13    1    6    6    0    0  0.22313713907E+02  0.25703055241E+02 -0.49086257605E+02  0.59732818138E+02  0.00000000000E+00 0.  1.
         14    1    6    6    0    0  0.14756711120E+02  0.52618551150E+02  0.21039051562E+02  0.58558638465E+02  0.00000000000E+00 0. -1.
         -5    1    3    3    0  503  0.29607256564E+02 -0.83611324316E+02  0.58493905444E+02  0.10635351508E+03  0.47000000000E+01 0.  1.
         13    1    4    4    0    0 -0.25931641078E+02 -0.69703292150E+00 -0.20580504442E+02  0.33113336089E+02  0.00000000000E+00 0. -1.
        -14    1    4    4    0    0  0.13930472721E+02  0.39797028656E+02  0.31769234568E+02  0.52793425965E+02  0.00000000000E+00 0.  1.
</event>
<event>
12    1  0.8297444E-002  0.1752735E+03  0.7818608E-02  0.1177001E+00
         21   -1    0    0  503  502  0.00000000000E+00  0.00000000000E+00  0.33067523777E+03  0.33067523777E+03  0.00000000000E+00 0.  1.
         21   -1    0    0  501  503 -0.00000000000E+00 -0.00000000000E+00 -0.12307144928E+03  0.12307144928E+03  0.00000000000E+00 0.  1.
          6    2    1    2  501    0 -0.14984891063E+02 -0.29315258811E+02 -0.27518392257E+02  0.16048358760E+03  0.15464083749E+03 0.  0.
         24    2    3    3    0    0  0.30002453445E+02 -0.68548188741E+02 -0.72316043704E+01  0.97263909342E+02  0.61716858040E+02 0.  0.
         -6    2    1    2    0  502  0.14984891063E+02  0.29315258811E+02  0.23512218075E+03  0.29326309944E+03  0.17215363562E+03 0.  0.
        -24    2    5    5    0    0  0.52050561011E+02 -0.22017711564E+02  0.10545279104E+03  0.14888450559E+03  0.88613003235E+02 0.  0.
          5    1    3    3  501    0 -0.44987344508E+02  0.39232929930E+02 -0.20286787886E+02  0.63219678261E+02  0.47000000000E+01 0. -1.
        -11    1    4    4    0    0  0.43212308551E+02 -0.27374522228E+02  0.72454335660E+01  0.51663956344E+02  0.00000000000E+00 0.  1.
         12    1    4    4    0    0 -0.13209855106E+02 -0.41173666512E+02 -0.14477037936E+02  0.45599952998E+02  0.00000000000E+00 0. -1.
         -5    1    5    5    0  502 -0.37065669948E+02  0.51332970375E+02  0.12966938971E+03  0.14437859385E+03  0.47000000000E+01 0.  1.
         11    1    6    6    0    0  0.30521708701E+01 -0.47284684761E+02  0.65311912801E+02  0.80689547735E+02  0.00000000000E+00 0. -1.
        -12    1    6    6    0    0  0.48998390141E+02  0.25266973197E+02  0.40140878239E+02  0.68194957854E+02  0.00000000000E+00 0.  1.
</event>
<event>
12    1  0.8297444E-002  0.1756224E+03  0.7818608E-02  0.1172410E+00
         21   -1    0    0  503  502  0.00000000000E+00  0.00000000000E+00  0.62068042144E+02  0.62068042144E+02  0.00000000000E+00 0.  1.
         21   -1    0    0  501  503 -0.00000000000E+00 -0.00000000000E+00 -0.55937843535E+03  0.55937843535E+03  0.00000000000E+00 0.  1.
          6    2    1    2  501    0  0.23455144764E+02 -0.30106046910E+02 -0.14279907974E+03  0.22635105135E+03  0.17142550393E+03 0.  0.
         24    2    3    3    0    0 -0.15419369386E+02 -0.61716790654E+02 -0.14303101675E+03  0.17602600028E+03  0.80501936760E+02 0.  0.
         -6    2    1    2    0  502 -0.23455144764E+02  0.30106046910E+02 -0.35451131347E+03  0.39509542614E+03  0.17019285092E+03 0.  0.
        -24    2    5    5    0    0  0.27733322877E+02  0.43075138076E+02 -0.96787650141E+02  0.13197561848E+03  0.73655345595E+02 0.  0.
          5    1    3    3  501    0  0.38874514150E+02  0.31610743744E+02  0.23193701321E+00  0.50325051071E+02  0.47000000000E+01 0. -1.
        -11    1    4    4    0    0 -0.20437272156E+02  0.15231260443E+02 -0.35018853278E+02  0.43312740305E+02  0.00000000000E+00 0.  1.
         12    1    4    4    0    0  0.50179027700E+01 -0.76948051097E+02 -0.10801216347E+03  0.13271325998E+03  0.00000000000E+00 0. -1.
         -5    1    5    5    0  502 -0.51188467641E+02 -0.12969091165E+02 -0.25772366333E+03  0.26311980766E+03  0.47000000000E+01 0.  1.
         13    1    6    6    0    0  0.18854054228E+02  0.29166190816E+02 -0.96548667503E+00  0.34742973564E+02  0.00000000000E+00 0. -1.
        -14    1    6    6    0    0  0.88792686490E+01  0.13908947260E+02 -0.95822163466E+02  0.97232644913E+02  0.00000000000E+00 0.  1.
</event>
<event>
12    1  0.8297444E-002  0.1788840E+03  0.7818608E-02  0.1170284E+00
         21   -1    0    0  503  502  0.00000000000E+00  0.00000000000E+00  0.23429827764E+04  0.23429827764E+04  0.00000000000E+00 0.  1.
         21   -1    0    0  501  503 -0.00000000000E+00 -0.00000000000E+00 -0.22629477571E+02  0.22629477571E+02  0.00000000000E+00 0.  1.
          6    2    1    2  501    0 -0.15091490325E+02 -0.38511998330E+01  0.38714386364E+03  0.42414419666E+03  0.17255533485E+03 0.  0.
         24    2    3    3    0    0  0.19091415712E+01  0.33857520368E+02  0.91076479679E+02  0.12516433963E+03  0.78874649015E+02 0.  0.
         -6    2    1    2    0  502  0.15091490325E+02  0.38511998330E+01  0.19332094352E+04  0.19414680573E+04  0.17820469253E+03 0.  0.
        -24    2    5    5    0    0  0.48757382213E+02  0.18294114059E+02  0.59504025496E+03  0.60278929265E+03  0.81055964489E+02 0.  0.
          5    1    3    3  501    0 -0.17000631896E+02 -0.37708720201E+02  0.29606738396E+03  0.29897985703E+03  0.47000000000E+01 0. -1.
        -13    1    4    4    0    0  0.28934694503E+02 -0.11968682849E+02  0.44765148412E+02  0.54629519744E+02  0.00000000000E+00 0.  1.
         14    1    4    4    0    0 -0.27025552932E+02  0.45826203217E+02  0.46311331267E+02  0.70534819886E+02  0.00000000000E+00 0. -1.
         -5    1    5    5    0  502 -0.33665891888E+02 -0.14442914226E+02  0.13381691802E+04  0.13386787646E+04  0.47000000000E+01 0.  1.
         11    1    6    6    0    0 -0.14792421556E+01 -0.87676874140E+01  0.54178542840E+01  0.10412187330E+02  0.00000000000E+00 0. -1.
        -12    1    6    6    0    0  0.50236624369E+02  0.27061801473E+02  0.58962240068E+03  0.59237710532E+03  0.00000000000E+00 0.  1.
</event>
<event>
12    1  0.8297444E-002  0.1956650E+03  0.7818608E-02  0.1154758E+00
         21   -1    0    0  503  502  0.00000000000E+00  0.00000000000E+00  0.15691744243E+03  0.15691744243E+03  0.00000000000E+00 0.  1.
         21   -1    0    0  501  503 -0.00000000000E+00 -0.00000000000E+00 -0.30819449340E+03  0.30819449340E+03  0.00000000000E+00 0.  1.
          6    2    1    2  501    0 -0.81761520207E+02  0.42104344886E+02 -0.18858129826E+03  0.27174931676E+03  0.17270513327E+03 0.  0.
         24    2    3    3    0    0 -0.19624759065E+02 -0.37701434357E+02 -0.12499162566E+03  0.15218479047E+03  0.75701880041E+02 0.  0.
         -6    2    1    2    0  502  0.81761520207E+02 -0.42104344886E+02  0.37304247295E+02  0.19336261908E+03  0.16595111794E+03 0.  0.
        -24    2    5    5    0    0 -0.20072659667E+02 -0.31323712922E+02  0.10351747936E+02  0.87367574677E+02  0.78369941701E+02 0.  0.
          5    1    3    3  501    0 -0.62136761143E+02  0.79805779243E+02 -0.63589672599E+02  0.11956452629E+03  0.47000000000E+01 0. -1.
        -13    1    4    4    0    0 -0.31917599547E+02 -0.80616580925E+01 -0.12511674523E+02  0.35217403246E+02  0.00000000000E+00 0.  1.
         14    1    4    4    0    0  0.12292840482E+02 -0.29639776264E+02 -0.11247995114E+03  0.11696738722E+03  0.00000000000E+00 0. -1.
         -5    1    5    5    0  502  0.10183417987E+03 -0.10780631964E+02  0.26952499359E+02  0.10599504440E+03  0.47000000000E+01 0.  1.
         13    1    6    6    0    0 -0.41365309030E+01 -0.47240913676E+02  0.31127664766E+02  0.56725182473E+02  0.00000000000E+00 0. -1.
        -14    1    6    6    0    0 -0.15936128764E+02  0.15917200754E+02 -0.20775916830E+02  0.30642392203E+02  0.00000000000E+00 0.  1.
</event>
<event>
12    1  0.8297444E-002  0.2245607E+03  0.7818608E-02  0.1130720E+00
         21   -1    0    0  503  502  0.00000000000E+00  0.00000000000E+00  0.21128924810E+03  0.21128924810E+03  0.00000000000E+00 0. -1.
         21   -1    0    0  501  503 -0.00000000000E+00 -0.00000000000E+00 -0.25271611888E+03  0.25271611888E+03  0.00000000000E+00 0. -1.
          6    2    1    2  501    0  0.12418378976E+03  0.72106798484E+02 -0.77513876734E+02  0.23656356536E+03  0.17126854744E+03 0.  0.
         24    2    3    3    0    0  0.14590816270E+03  0.36241730091E+02 -0.29373964044E+02  0.17254956139E+03  0.79422077716E+02 0.  0.
         -6    2    1    2    0  502 -0.12418378976E+03 -0.72106798484E+02  0.36087005951E+02  0.22744180163E+03  0.17264558234E+03 0.  0.
        -24    2    5    5    0    0 -0.84510213258E+02 -0.52821820667E+02  0.91225566747E+02  0.15667278348E+03  0.79322986409E+02 0.  0.
          5    1    3    3  501    0 -0.21724372940E+02  0.35865068393E+02 -0.48139912690E+02  0.64014003970E+02  0.47000000000E+01 0. -1.
        -13    1    4    4    0    0 -0.19597065927E+01  0.20808603902E+02 -0.78608103997E+01  0.22330042239E+02  0.00000000000E+00 0.  1.
         14    1    4    4    0    0  0.14786786929E+03  0.15433126189E+02 -0.21513153644E+02  0.15021951915E+03  0.00000000000E+00 0. -1.
         -5    1    5    5    0  502 -0.39673576504E+02 -0.19284977817E+02 -0.55138560796E+02  0.70769018141E+02  0.47000000000E+01 0.  1.
         11    1    6    6    0    0 -0.23898894923E+02  0.19382376202E+02  0.36224023895E+02  0.47529081550E+02  0.00000000000E+00 0. -1.
        -12    1    6    6    0    0 -0.60611318334E+02 -0.72204196869E+02  0.55001542852E+02  0.10914370193E+03  0.00000000000E+00 0.  1.
</event>
<event>
12    1  0.8297444E-002  0.2385471E+03  0.7818608E-02  0.1120951E+00
         21   -1    0    0  501  502  0.00000000000E+00  0.00000000000E+00  0.43376550881E+02  0.43376550881E+02  0.00000000000E+00 0.  1.
         21   -1    0    0  502  503 -0.00000000000E+00 -0.00000000000E+00 -0.16461524989E+04  0.16461524989E+04  0.00000000000E+00 0. -1.
         -6    2    1    2    0  503  0.73489847523E+02 -0.14822576321E+03 -0.11870023091E+04  0.12107349904E+04  0.17185197264E+03 0.  0.
        -24    2    3    3    0    0  0.92736332236E+02 -0.52749505787E+02 -0.83368631085E+03  0.84421019239E+03  0.79217714944E+02 0.  0.
          6    2    1    2  501    0 -0.73489847523E+02  0.14822576321E+03 -0.41577363884E+03  0.47879405935E+03  0.17030677598E+03 0.  0.
         24    2    5    5    0    0 -0.10731142086E+03  0.67054061127E+02 -0.21961923071E+03  0.26377920900E+03  0.73040238506E+02 0.  0.
          5    1    5    5  501    0  0.33821573336E+02  0.81171702081E+02 -0.19615440813E+03  0.21501485035E+03  0.47000000000E+01 0. -1.
        -13    1    6    6    0    0 -0.41844022713E+02  0.35022177157E+02 -0.33822215304E+02  0.64198266158E+02  0.00000000000E+00 0.  1.
         14    1    6    6    0    0 -0.65467398146E+02  0.32031883970E+02 -0.18579701541E+03  0.19958094284E+03  0.00000000000E+00 0. -1.
         -5    1    3    3    0  503 -0.19246484713E+02 -0.95476257421E+02 -0.35331599828E+03  0.36652479799E+03  0.47000000000E+01 0.  1.
         11    1    4    4    0    0 -0.78472310734E+01  0.19602280653E+01 -0.20647375182E+03  0.20663211687E+03  0.00000000000E+00 0. -1.
        -12    1    4    4    0    0  0.10058356331E+03 -0.54709733852E+02 -0.62721255903E+03  0.63757807552E+03  0.00000000000E+00 0.  1.
</event>
<event>
12    1  0.8297444E-002  0.2590308E+03  0.7818608E-02  0.1107847E+00
         21   -1    0    0  503  502  0.00000000000E+00  0.00000000000E+00  0.50520686686E+03  0.50520686686E+03  0.00000000000E+00 0. -1.
         21   -1    0    0  501  503 -0.00000000000E+00 -0.00000000000E+00 -0.14047617958E+03  0.14047617958E+03  0.00000000000E+00 0.  1.
          6    2    1    2  501    0 -0.15814345783E+03  0.10548830819E+03  0.25948578271E+03  0.36608786469E+03  0.17478648926E+03 0.  0.
         24    2    3    3    0    0 -0.61168665731E+02  0.10730280353E+02  0.18625939390E+03  0.21192111030E+03  0.79757448502E+02 0.  0.
         -6    2    1    2    0  502  0.15814345783E+03 -0.10548830819E+03  0.10524490457E+03  0.27959518175E+03  0.17595408294E+03 0.  0.
        -24    2    5    5    0    0  0.11134480463E+03 -0.13156975173E+03  0.38951132916E+02  0.19422944039E+03  0.80620218746E+02 0.  0.
          5    1    3    3  501    0 -0.96974792101E+02  0.94758027834E+02  0.73226388810E+02  0.15416675439E+03  0.47000000000E+01 0. -1.
        -11    1    4    4    0    0 -0.42170300941E+02 -0.28246541187E+02  0.60919831734E+02  0.79293299017E+02  0.00000000000E+00 0.  1.
         12    1    4    4    0    0 -0.18998364789E+02  0.38976821540E+02  0.12533956216E+03  0.13262781128E+03  0.00000000000E+00 0. -1.
         -5    1    5    5    0  502  0.46798653203E+02  0.26081443538E+02  0.66293771654E+02  0.85365741365E+02  0.47000000000E+01 0.  1.
         13    1    6    6    0    0  0.10750250830E+03 -0.89260566217E+02  0.53060331274E+02  0.14946449989E+03  0.00000000000E+00 0. -1.
        -14    1    6    6    0    0  0.38422963282E+01 -0.42309185508E+02 -0.14109198358E+02  0.44764940497E+02  0.00000000000E+00 0.  1.
</event>
<event>
12    1  0.8297444E-002  0.1941897E+03  0.7818608E-02  0.1154892E+00
         21   -1    0    0  501  502  0.00000000000E+00  0.00000000000E+00  0.63542160366E+03  0.63542160366E+03  0.00000000000E+00 0.  1.
         21   -1    0    0  502  503 -0.00000000000E+00 -0.00000000000E+00 -0.90887643244E+02  0.90887643244E+02  0.00000000000E+00 0.  1.
         -6    2    1    2    0  503  0.62154243627E+02  0.65280467255E+02  0.57921408028E+02  0.20264384859E+03  0.17200276294E+03 0.  0.
        -24    2    3    3    0    0  0.26621558726E+01  0.65701572128E+02 -0.27442275143E+02  0.98487551426E+02  0.67992173570E+02 0.  0.
          6    2    1    2  501    0 -0.62154243627E+02 -0.65280467255E+02  0.48661255239E+03  0.52366539831E+03  0.17119866775E+03 0.  0.
         24    2    5    5    0    0 -0.19566212917E+02 -0.56209389552E+02  0.46212347229E+03  0.47348741654E+03  0.84201530988E+02 0.  0.
          5    1    5    5  501    0 -0.42588030710E+02 -0.90710777027E+01  0.24489080099E+02  0.50177981770E+02  0.47000000000E+01 0. -1.
        -11    1    6    6    0    0  0.13910763418E+02 -0.63884615639E+02  0.24094907403E+03  0.24966219123E+03  0.00000000000E+00 0.  1.
         12    1    6    6    0    0 -0.33476976336E+02  0.76752260865E+01  0.22117439826E+03  0.22382522531E+03  0.00000000000E+00 0. -1.
         -5    1    3    3    0  503  0.59492087755E+02 -0.42110487367E+00  0.85363683172E+02  0.10415629717E+03  0.47000000000E+01 0.  1.
         13    1    4    4    0    0 -0.22880847535E+02  0.62316732352E+02 -0.29490039707E+02  0.72640007963E+02  0.00000000000E+00 0. -1.
        -14    1    4    4    0    0  0.25543003407E+02  0.33848397763E+01  0.20477645637E+01  0.25847543463E+02  0.00000000000E+00 0.  1.
</event>
<event>
12    1  0.8297444E-002  0.1827474E+03  0.7818608E-02  0.1165223E+00
         21   -1    0    0  503  502  0.00000000000E+00  0.00000000000E+00  0.21980035265E+03  0.21980035265E+03  0.00000000000E+00 0. -1.
         21   -1    0    0  501  503 -0.00000000000E+00 -0.00000000000E+00 -0.15182335246E+03  0.15182335246E+03  0.00000000000E+00 0. -1.
          6    2    1    2  501    0  0.54855898319E+02 -0.25693456299E+02  0.30032538445E+02  0.18497856361E+03  0.17217953523E+03 0.  0.
         24    2    3    3    0    0  0.35551681223E+02  0.50431595156E+02  0.33704154363E+02  0.10621786897E+03  0.79617823625E+02 0.  0.
         -6    2    1    2    0  502 -0.54855898319E+02  0.25693456299E+02  0.37944461746E+02  0.18664514150E+03  0.17241607637E+03 0.  0.
        -24    2    5    5    0    0 -0.25739610482E+02 -0.40206292232E+02 -0.19071924380E+02  0.94647895013E+02  0.79469568062E+02 0.  0.
          5    1    3    3  501    0  0.19304217096E+02 -0.76125051456E+02 -0.36716159173E+01  0.78760694640E+02  0.47000000000E+01 0. -1.
        -11    1    4    4    0    0 -0.13994647837E+02 -0.75201441020E+01 -0.95717110966E+01  0.18547786626E+02  0.00000000000E+00 0.  1.
         12    1    4    4    0    0  0.49546329060E+02  0.57951739258E+02  0.43275865459E+02  0.87670082341E+02  0.00000000000E+00 0. -1.
         -5    1    5    5    0  502 -0.29116287837E+02  0.65899748531E+02  0.57016386125E+02  0.91997246484E+02  0.47000000000E+01 0.  1.
         11    1    6    6    0    0  0.63518700675E+01  0.54045238462E+01 -0.35534105573E+02  0.36499695756E+02  0.00000000000E+00 0. -1.
        -12    1    6    6    0    0 -0.32091480550E+02 -0.45610816078E+02  0.16462181194E+02  0.58148199257E+02  0.00000000000E+00 0.  1.
</event>
<event>
12    1  0.8297444E-002  0.1979046E+03  0.7818608E-02  0.1151559E+00
         21   -1    0    0  503  502  0.00000000000E+00  0.00000000000E+00  0.35562161932E+03  0.35562161932E+03  0.00000000000E+00 0.  1.
         21   -1    0    0  501  503 -0.00000000000E+00 -0.00000000000E+00 -0.12906331537E+03  0.12906331537E+03  0.00000000000E+00 0. -1.
          6    2    1    2  501    0 -0.54597986707E+02 -0.78308149386E+02  0.20638824124E+03  0.28594111771E+03  0.17335832909E+03 0.  0.
         24    2    3    3    0    0 -0.40706840231E+02 -0.11951417786E+03  0.18256998997E+03  0.23613850909E+03  0.80553762696E+02 0.  0.
         -6    2    1    2    0  502  0.54597986707E+02  0.78308149386E+02  0.20170062713E+02  0.19874381697E+03  0.17314493046E+03 0.  0.
        -24    2    5    5    0    0 -0.19374662573E+02 -0.65327724212E+01  0.23588748663E+02  0.86033070954E+02  0.80169854490E+02 0.  0.
          5    1    3    3  501    0 -0.13891146476E+02  0.41206028471E+02  0.23818251264E+02  0.49802608627E+02  0.47000000000E+01 0. -1.
        -13    1    4    4    0    0  0.81993957537E+00 -0.83366112627E+02  0.15149032308E+03  0.17291587267E+03  0.00000000000E+00 0.  1.
         14    1    4    4    0    0 -0.41526779806E+02 -0.36148065230E+02  0.31079666894E+02  0.63222636414E+02  0.00000000000E+00 0. -1.
         -5    1    5    5    0  502  0.73972649280E+02  0.84840921807E+02 -0.34186859506E+01  0.11271074602E+03  0.47000000000E+01 0.  1.
         13    1    6    6    0    0 -0.47379554260E+02 -0.12468202404E+02  0.83741856708E-01  0.48992706047E+02  0.00000000000E+00 0. -1.
        -14    1    6    6    0    0  0.28004891687E+02  0.59354299831E+01  0.23505006807E+02  0.37040364907E+02  0.00000000000E+00 0.  1.
</event>
<event>
12    1  0.8297444E-002  0.1791747E+03  0.7818608E-02  0.1172196E+00
         21   -1    0    0  503  502  0.00000000000E+00  0.00000000000E+00  0.15086104683E+03  0.15086104683E+03  0.00000000000E+00 0. -1.
         21   -1    0    0  501  503 -0.00000000000E+00 -0.00000000000E+00 -0.22221559437E+03  0.22221559437E+03  0.00000000000E+00 0. -1.
          6    2    1    2  501    0  0.78174524446E+01 -0.49287591065E+02 -0.10055576562E+03  0.20546301018E+03  0.17208488417E+03 0.  0.
         24    2    3    3    0    0 -0.55720060205E+02 -0.59541673826E+02 -0.72597604754E+02  0.13513584270E+03  0.79632579612E+02 0.  0.
         -6    2    1    2    0  502 -0.78174524446E+01  0.49287591065E+02  0.29201218078E+02  0.16761363102E+03  0.15732526488E+03 0.  0.
        -24    2    5    5    0    0  0.34258788051E+02 -0.58175154873E+01  0.41957351338E+02  0.96961018058E+02  0.80209174328E+02 0.  0.
          5    1    3    3  501    0  0.63537512649E+02  0.10254082761E+02 -0.27958160867E+02  0.70327167482E+02  0.47000000000E+01 0. -1.
        -11    1    4    4    0    0 -0.12453341001E+02 -0.10664723053E+02  0.17432596246E+02  0.23931515451E+02  0.00000000000E+00 0.  1.
         12    1    4    4    0    0 -0.43266719204E+02 -0.48876950773E+02 -0.90030200999E+02  0.11120432725E+03  0.00000000000E+00 0. -1.
         -5    1    5    5    0  502 -0.42076240496E+02  0.55105106552E+02 -0.12756133260E+02  0.70652612961E+02  0.47000000000E+01 0.  1.
         11    1    6    6    0    0 -0.10361757180E+02 -0.13625733726E+02  0.48278584401E+02  0.51223513577E+02  0.00000000000E+00 0. -1.
        -12    1    6    6    0    0  0.44620545231E+02  0.78082182383E+01 -0.63212330623E+01  0.45737504482E+02  0.00000000000E+00 0.  1.
</event>
<event>
12    1  0.8297444E-002  0.2730207E+03  0.7818608E-02  0.1099607E+00
         21   -1    0    0  501  502  0.00000000000E+00  0.00000000000E+00  0.81172968529E+03  0.81172968529E+03  0.00000000000E+00 0.  1.
         21   -1    0    0  502  503 -0.00000000000E+00 -0.00000000000E+00 -0.91890601863E+02  0.91890601863E+02  0.00000000000E+00 0. -1.
         -6    2    1    2    0  503 -0.11169680634E+03 -0.18046420279E+03  0.37926761676E+03  0.46731595492E+03  0.17174624177E+03 0.  0.
        -24    2    3    3    0    0 -0.14635088400E+03 -0.13123812919E+03  0.28814305683E+03  0.35800041694E+03  0.80596833238E+02 0.  0.
          6    2    1    2  501    0  0.11169680634E+03  0.18046420279E+03  0.34057146666E+03  0.43630433223E+03  0.17125723747E+03 0.  0.
         24    2    5    5    0    0  0.83655132233E+02  0.14668791407E+03  0.14634016542E+03  0.23711833486E+03  0.79335587411E+02 0.  0.
          5    1    5    5  501    0  0.28041674106E+02  0.33776288716E+02  0.19423130124E+03  0.19918599737E+03  0.47000000000E+01 0. -1.
        -13    1    6    6    0    0  0.37044902494E+02  0.74405443324E+02  0.12219866006E+03  0.14778703366E+03  0.00000000000E+00 0.  1.
         14    1    6    6    0    0  0.46610229739E+02  0.72282470746E+02  0.24141505356E+02  0.89331301201E+02  0.00000000000E+00 0. -1.
         -5    1    3    3    0  503  0.34654077666E+02 -0.49226073597E+02  0.91124559933E+02  0.10931553798E+03  0.47000000000E+01 0.  1.
         11    1    4    4    0    0 -0.77454281504E+02 -0.41462480464E+02  0.70304588055E+02  0.11252127848E+03  0.00000000000E+00 0. -1.
        -12    1    4    4    0    0 -0.68896602500E+02 -0.89775648725E+02  0.21783846877E+03  0.24547913846E+03  0.00000000000E+00 0.  1.
</event>
<event>
12    1  0.8297444E-002  0.2035300E+03  0.7818608E-02  0.1149374E+00
         21   -1    0    0  503  502  0.00000000000E+00  0.00000000000E+00  0.78313815990E+02  0.78313815990E+02  0.00000000000E+00 0. -1.
         21   -1    0    0  501  503 -0.00000000000E+00 -0.00000000000E+00 -0.50233641146E+03  0.50233641146E+03  0.00000000000E+00 0. -1.
          6    2    1    2  501    0 -0.64584812264E+02  0.54555863418E+02 -0.24553759123E+03  0.31892502418E+03  0.18514027691E+03 0.  0.
         24    2    3    3    0    0 -0.96254231239E+01  0.10211334337E+03 -0.14301161801E+03  0.19316368855E+03  0.79624770172E+02 0.  0.
         -6    2    1    2    0  502  0.64584812264E+02 -0.54555863418E+02 -0.17848500424E+03  0.26172520327E+03  0.17174296224E+03 0.  0.
        -24    2    5    5    0    0 -0.13907561272E+02  0.13863890156E+02 -0.11086021890E+03  0.13747739856E+03  0.78894988881E+02 0.  0.
          5    1    3    3  501    0 -0.54959389141E+02 -0.47557479951E+02 -0.10252597322E+03  0.12576133563E+03  0.47000000000E+01 0. -1.
        -13    1    4    4    0    0  0.27168243579E+02  0.75422034914E+01 -0.35323755092E+02  0.45196968554E+02  0.00000000000E+00 0.  1.
         14    1    4    4    0    0 -0.36793666703E+02  0.94571139878E+02 -0.10768786292E+03  0.14796672000E+03  0.00000000000E+00 0. -1.
         -5    1    5    5    0  502  0.78492373536E+02 -0.68419753574E+02 -0.67624785342E+02  0.12424780471E+03  0.47000000000E+01 0.  1.
         11    1    6    6    0    0  0.20725169787E+02  0.34699059509E+02 -0.48065918834E+02  0.62800397665E+02  0.00000000000E+00 0. -1.
        -12    1    6    6    0    0 -0.34632731059E+02 -0.20835169352E+02 -0.62794300063E+02  0.74677000896E+02  0.00000000000E+00 0.  1.
</event>
<event>
12    1  0.8297444E-002  0.2344494E+03  0.7818608E-02  0.1124821E+00
         21   -1    0    0  501  502  0.00000000000E+00  0.00000000000E+00  0.77487699252E+03  0.77487699252E+03  0.00000000000E+00 0.  1.
         21   -1    0    0  502  503 -0.00000000000E+00 -0.00000000000E+00 -0.13907052356E+03  0.13907052356E+03  0.00000000000E+00 0.  1.
         -6    2    1    2    0  503  0.50548211083E+02 -0.15155745714E+03 -0.45538773534E+01  0.23449362403E+03  0.17158594772E+03 0.  0.
        -24    2    3    3    0    0 -0.14644136847E+02 -0.14435564325E+02 -0.15577560566E+02  0.82191072151E+02  0.78037655569E+02 0.  0.
          6    2    1    2  501    0 -0.50548211083E+02  0.15155745714E+03  0.64036034631E+03  0.67945389205E+03  0.16146650998E+03 0.  0.
         24    2    5    5    0    0 -0.11658878182E+02  0.21658204870E+02  0.33499420082E+03  0.34530307466E+03  0.80050555957E+02 0.  0.
          5    1    5    5  501    0 -0.38889332901E+02  0.12989925227E+03  0.30536614548E+03  0.33415081739E+03  0.47000000000E+01 0. -1.
        -13    1    6    6    0    0  0.27326742263E+02 -0.10897615790E+02  0.17453357528E+03  0.17699569987E+03  0.00000000000E+00 0.  1.
         14    1    6    6    0    0 -0.38985620445E+02  0.32555820660E+02  0.16046062554E+03  0.16830737479E+03  0.00000000000E+00 0. -1.
         -5    1    3    3    0  503  0.65192347930E+02 -0.13712189281E+03  0.11023683213E+02  0.15230255188E+03  0.47000000000E+01 0.  1.
         11    1    4    4    0    0 -0.14101836070E+01  0.29770010766E+02  0.73040488120E+01  0.30685359504E+02  0.00000000000E+00 0. -1.
        -12    1    4    4    0    0 -0.13233953240E+02 -0.44205575092E+02 -0.22881609378E+02  0.51505712647E+02  0.00000000000E+00 0.  1.
</event>
<event>
12    1  0.8297444E-002  0.1868508E+03  0.7818608E-02  0.1161734E+00
         21   -1    0    0  503  502  0.00000000000E+00  0.00000000000E+00  0.89598131310E+02  0.89598131310E+02  0.00000000000E+00 0.  1.
         21   -1    0    0  501  503 -0.00000000000E+00 -0.00000000000E+00 -0.38642300739E+03  0.38642300739E+03  0.00000000000E+00 0.  1.
          6    2    1    2  501    0  0.48401161984E+02  0.50105845352E+02 -0.15498175076E+03  0.24143065992E+03  0.17151137648E+03 0.  0.
         24    2    3    3    0    0 -0.33021833774E+01  0.12981409879E+02  0.31526756620E+01  0.70901933750E+02  0.69553744889E+02 0.  0.
         -6    2    1    2    0  502 -0.48401161984E+02 -0.50105845352E+02 -0.14184312532E+03  0.23459047878E+03  0.17337806180E+03 0.  0.
        -24    2    5    5    0    0 -0.99367037038E+02 -0.36667996088E+02 -0.88676188504E+02  0.15957775064E+03  0.79895194496E+02 0.  0.
          5    1    3    3  501    0  0.51703345361E+02  0.37124435473E+02 -0.15813442642E+03  0.17052872617E+03  0.47000000000E+01 0. -1.
        -13    1    4    4    0    0  0.14164329778E+02  0.36975412577E+02 -0.55297575246E+01  0.39979839814E+02  0.00000000000E+00 0.  1.
         14    1    4    4    0    0 -0.17466513156E+02 -0.23994002698E+02  0.86824331866E+01  0.30922093935E+02  0.00000000000E+00 0. -1.
         -5    1    5    5    0  502  0.50965875054E+02 -0.13437849264E+02 -0.53166936820E+02  0.75012728144E+02  0.47000000000E+01 0.  1.
         11    1    6    6    0    0 -0.87375410592E+02 -0.25397928384E+01 -0.87055762989E+02  0.12336781912E+03  0.00000000000E+00 0. -1.
        -12    1    6    6    0    0 -0.11991626446E+02 -0.34128203249E+02 -0.16204255150E+01  0.36209931520E+02  0.00000000000E+00 0.  1.
</event>
<event>
12    1  0.8297444E-002  0.1840338E+03  0.7818608E-02  0.1164240E+00
         21   -1    0    0  501  502  0.00000000000E+00  0.00000000000E+00  0.81888856738E+03  0.81888856738E+03  0.00000000000E+00 0.  1.
         21   -1    0    0  502  503 -0.00000000000E+00 -0.00000000000E+00 -0.45865977040E+02  0.45865977040E+02  0.00000000000E+00 0.  1.
         -6    2    1    2    0  503 -0.31469724313E+02  0.55698226384E+02  0.24582131903E+03  0.30635538242E+03  0.17126839602E+03 0.  0.
        -24    2    3    3    0    0  0.12050084503E+02 -0.17379678755E+02  0.65316366964E+02  0.10675958662E+03  0.81756490706E+02 0.  0.
          6    2    1    2  501    0  0.31469724313E+02 -0.55698226384E+02  0.52720127132E+03  0.55839916201E+03  0.17255667962E+03 0.  0.
         24    2    5    5    0    0  0.63084429104E+02 -0.31306550947E+02  0.49605968745E+03  0.50754317283E+03  0.81025387644E+02 0.  0.
          5    1    5    5  501    0 -0.31614704792E+02 -0.24391675437E+02  0.31141583866E+02  0.50855989179E+02  0.47000000000E+01 0. -1.
        -11    1    6    6    0    0 -0.12565960391E+02 -0.19234096532E+02  0.21520544290E+03  0.21642836340E+03  0.00000000000E+00 0.  1.
         12    1    6    6    0    0  0.75650389496E+02 -0.12072454415E+02  0.28085424455E+03  0.29111480943E+03  0.00000000000E+00 0. -1.
         -5    1    3    3    0  503 -0.43519808815E+02  0.73077905139E+02  0.18050495206E+03  0.19959579579E+03  0.47000000000E+01 0.  1.
         13    1    4    4    0    0 -0.12266251576E+02 -0.13504382986E+02  0.77265568857E+02  0.79390159456E+02  0.00000000000E+00 0. -1.
        -14    1    4    4    0    0  0.24316336079E+02 -0.38752957691E+01 -0.11949201894E+02  0.27369427168E+02  0.00000000000E+00 0.  1.
</event>
<event>
12    1  0.8297444E-002  0.1720742E+03  0.7818608E-02  0.1176080E+00
         21   -1    0    0  503  502  0.00000000000E+00  0.00000000000E+00  0.13363500761E+03  0.13363500761E+03  0.00000000000E+00 0. -1.
         21   -1    0    0  501  503 -0.00000000000E+00 -0.00000000000E+00 -0.72506502402E+03  0.72506502402E+03  0.00000000000E+00 0. -1.
          6    2    1    2  501    0 -0.77129760141E+01 -0.48965126380E+01 -0.65378344189E+03  0.67567690001E+03  0.17036143486E+03 0.  0.
         24    2    3    3    0    0  0.13314319434E+01 -0.81124057120E+01 -0.13784480751E+03  0.15962757318E+03  0.80076134541E+02 0.  0.
         -6    2    1    2    0  502  0.77129760141E+01  0.48965126380E+01  0.62353425480E+02  0.18302313162E+03  0.17183146162E+03 0.  0.
        -24    2    5    5    0    0 -0.55064608997E+02 -0.10403095545E+02  0.67018104927E+02  0.11806966809E+03  0.79427228162E+02 0.  0.
          5    1    3    3  501    0 -0.90444079575E+01  0.32158930741E+01 -0.51593863438E+03  0.51604932683E+03  0.47000000000E+01 0. -1.
        -13    1    4    4    0    0 -0.14270319576E+02 -0.40857490039E+02 -0.87011777825E+02  0.97180378643E+02  0.00000000000E+00 0.  1.
         14    1    4    4    0    0  0.15601751519E+02  0.32745084327E+02 -0.50833029687E+02  0.62447194534E+02  0.00000000000E+00 0. -1.
         -5    1    5    5    0  502  0.62777585011E+02  0.15299608183E+02 -0.46646794471E+01  0.64953463531E+02  0.47000000000E+01 0.  1.
         13    1    6    6    0    0 -0.52161144749E+02  0.25970255824E+02  0.53659327462E+02  0.79212136903E+02  0.00000000000E+00 0. -1.
        -14    1    6    6    0    0 -0.29034642476E+01 -0.36373351368E+02  0.13358777465E+02  0.38857531185E+02  0.00000000000E+00 0.  1.
</event>
<event>
12    1  0.8297444E-002  0.2090422E+03  0.7818608E-02  0.1142795E+00
         21   -1    0    0  501  502  0.00000000000E+00  0.00000000000E+00  0.10405275425E+03  0.10405275425E+03  0.00000000000E+00 0. -1.
         21   -1    0    0  502  503 -0.00000000000E+00 -0.00000000000E+00 -0.38631502853E+04  0.38631502853E+04  0.00000000000E+00 0.  1.
         -6    2    1    2    0  503  0.11391076059E+03 -0.17862332756E+02 -0.37523633219E+04  0.37580524023E+04  0.17155941990E+03 0.  0.
        -24    2    3    3    0    0  0.14696380729E+03 -0.26471016976E+02 -0.28715136071E+04  0.28765281977E+04  0.80777476052E+02 0.  0.
          6    2    1    2  501    0 -0.11391076059E+03  0.17862332756E+02 -0.67342090966E+01  0.20915063720E+03  0.17436718487E+03 0.  0.
         24    2    5    5    0    0 -0.58809721126E+02 -0.46250954512E+02 -0.43472950823E+02  0.11685511565E+03  0.78533346470E+02 0.  0.
          5    1    5    5  501    0 -0.55101039466E+02  0.64113287268E+02  0.36738741726E+02  0.92295521550E+02  0.47000000000E+01 0. -1.
        -13    1    6    6    0    0 -0.75552923531E+02 -0.26737342747E+02 -0.43403792244E+02  0.91142849047E+02  0.00000000000E+00 0.  1.
         14    1    6    6    0    0  0.16743202405E+02 -0.19513611765E+02 -0.69158578258E-01  0.25712266602E+02  0.00000000000E+00 0. -1.
         -5    1    3    3    0  503 -0.33053046700E+02  0.86086842207E+01 -0.88084971480E+03  0.88152420466E+03  0.47000000000E+01 0.  1.
         11    1    4    4    0    0  0.46040608760E+02 -0.17960752997E+02 -0.41575188991E+03  0.41867882711E+03  0.00000000000E+00 0. -1.
        -12    1    4    4    0    0  0.10092319853E+03 -0.85102639792E+01 -0.24557617172E+04  0.24578493706E+04  0.00000000000E+00 0.  1.
</event>
<event>
12    1  0.8297444E-002  0.2480841E+03  0.7818608E-02  0.1114588E+00
         21   -1    0    0  501  502  0.00000000000E+00  0.00000000000E+00  0.46611231276E+03  0.46611231276E+03  0.00000000000E+00 0.  1.
         21   -1    0    0  502  503 -0.00000000000E+00 -0.00000000000E+00 -0.10878930089E+04  0.10878930089E+04  0.00000000000E+00 0. -1.
         -6    2    1    2    0  503  0.15833208656E+03  0.81389010218E+02 -0.10393307600E+04  0.10685289565E+04  0.17277870696E+03 0.  0.
        -24    2    3    3    0    0  0.17423009687E+03  0.54691032619E+02 -0.99092579425E+03  0.10108170908E+04  0.80436468955E+02 0.  0.
          6    2    1    2  501    0 -0.15833208656E+03 -0.81389010218E+02  0.41755006394E+03  0.48547636509E+03  0.17218020951E+03 0.  0.
         24    2    5    5    0    0 -0.18636026506E+03 -0.70509696932E+02  0.38290377919E+03  0.43936353288E+03  0.81995391049E+02 0.  0.
          5    1    5    5  501    0  0.28028178497E+02 -0.10879313287E+02  0.34646284748E+02  0.46112832209E+02  0.47000000000E+01 0. -1.
        -11    1    6    6    0    0 -0.97389931411E+02 -0.21198147709E+02  0.26783458794E+03  0.28577880730E+03  0.00000000000E+00 0.  1.
         12    1    6    6    0    0 -0.88970333647E+02 -0.49311549223E+02  0.11506919125E+03  0.15358472558E+03  0.00000000000E+00 0. -1.
         -5    1    3    3    0  503 -0.15898010308E+02  0.26697977599E+02 -0.48404965785E+02  0.57711865784E+02  0.47000000000E+01 0.  1.
         11    1    4    4    0    0  0.24430296071E+02  0.27375262346E+02 -0.35608160394E+03  0.35796697197E+03  0.00000000000E+00 0. -1.
        -12    1    4    4    0    0  0.14979980080E+03  0.27315770273E+02 -0.63484419031E+03  0.65285011879E+03  0.00000000000E+00 0.  1.
</event>
<event>
12    1  0.8297444E-002  0.2007255E+03  0.7818608E-02  0.1149301E+00
         21   -1    0    0  503  502  0.00000000000E+00  0.00000000000E+00  0.47011685840E+03  0.47011685840E+03  0.00000000000E+00 0. -1.
         21   -1    0    0  501  503 -0.00000000000E+00 -0.00000000000E+00 -0.85894949641E+02  0.85894949641E+02  0.00000000000E+00 0. -1.
          6    2    1    2  501    0  0.49675304650E+02  0.91544265112E+02  0.21456665550E+03  0.29381898104E+03  0.17158891457E+03 0.  0.
         24    2    3    3    0    0  0.23632301202E+02  0.12905097600E+03  0.18011516658E+03  0.23642571943E+03  0.79012704740E+02 0.  0.
         -6    2    1    2    0  502 -0.49675304650E+02 -0.91544265112E+02  0.16965525326E+03  0.26219282700E+03  0.17062879359E+03 0.  0.
        -24    2    5    5    0    0 -0.59182533886E+02 -0.50863482962E+02  0.18450573650E+03  0.21760650290E+03  0.84973861179E+02 0.  0.
          5    1    3    3  501    0  0.26043003448E+02 -0.37506710883E+02  0.34451488919E+02  0.57393261614E+02  0.47000000000E+01 0. -1.
        -11    1    4    4    0    0 -0.96720138733E+01  0.72611100750E+02  0.14409470805E+03  0.16164530519E+03  0.00000000000E+00 0.  1.
         12    1    4    4    0    0  0.33304315075E+02  0.56439875246E+02  0.36020458537E+02  0.74780414238E+02  0.00000000000E+00 0. -1.
         -5    1    5    5    0  502  0.95072292357E+01 -0.40680782150E+02 -0.14850483246E+02  0.44586324099E+02  0.47000000000E+01 0.  1.
         13    1    6    6    0    0 -0.19279599165E+02 -0.13867777242E+02  0.15278821920E+03  0.15462295469E+03  0.00000000000E+00 0. -1.
        -14    1    6    6    0    0 -0.39902934721E+02 -0.36995705721E+02  0.31717517302E+02  0.62983548209E+02  0.00000000000E+00 0.  1.
</event>
<event>
12    1  0.8297444E-002  0.1917442E+03  0.7818608E-02  0.1157215E+00
         21   -1    0    0  503  502  0.00000000000E+00  0.00000000000E+00  0.11240009808E+03  0.11240009808E+03  0.00000000000E+00 0. -1.
         21   -1    0    0  501  503 -0.00000000000E+00 -0.00000000000E+00 -0.35204400642E+03  0.35204400642E+03  0.00000000000E+00 0. -1.
          6    2    1    2  501    0  0.76851693816E+02 -0.34438474279E+02 -0.18497575784E+03  0.26642423290E+03  0.17226041197E+03 0.  0.
         24    2    3    3    0    0  0.94276647876E+02 -0.23964302711E+02 -0.60757747622E+02  0.14046574228E+03  0.81097143721E+02 0.  0.
         -6    2    1    2    0  502 -0.76851693816E+02  0.34438474279E+02 -0.54668150492E+02  0.19801987160E+03  0.17067826902E+03 0.  0.
        -24    2    5    5    0    0 -0.98365932965E+02 -0.12278431174E+02 -0.47960536762E+01  0.12622399580E+03  0.77992809566E+02 0.  0.
          5    1    3    3  501    0 -0.17424954060E+02 -0.10474171568E+02 -0.12421801022E+03  0.12595849061E+03  0.47000000000E+01 0. -1.
        -13    1    4    4    0    0  0.48513487798E+02 -0.13259116212E+02  0.13961215537E+02  0.52194618499E+02  0.00000000000E+00 0.  1.
         14    1    4    4    0    0  0.45763160078E+02 -0.10705186499E+02 -0.74718963160E+02  0.88271123783E+02  0.00000000000E+00 0. -1.
         -5    1    5    5    0  502  0.21514239149E+02  0.46716905453E+02 -0.49872096815E+02  0.71795875801E+02  0.47000000000E+01 0.  1.
         11    1    6    6    0    0 -0.80455638461E+02  0.25272014517E+02  0.12004993700E+00  0.84331482199E+02  0.00000000000E+00 0. -1.
        -12    1    6    6    0    0 -0.17910294504E+02 -0.37550445691E+02 -0.49161036132E+01  0.41892513598E+02  0.00000000000E+00 0.  1.
</event>
<event>
12    1  0.8297444E-002  0.2363634E+03  0.7818608E-02  0.1123608E+00
         21   -1    0    0  503  502  0.00000000000E+00  0.00000000000E+00  0.11414275325E+04  0.11414275325E+04  0.00000000000E+00 0.  1.
         21   -1    0    0  501  503 -0.00000000000E+00 -0.00000000000E+00 -0.13905926033E+03  0.13905926033E+03  0.00000000000E+00 0. -1.
          6    2    1    2  501    0 -0.10414659453E+03  0.10824104737E+03  0.10182770371E+04  0.10435886158E+04  0.17212331991E+03 0.  0.
         24    2    3    3    0    0 -0.59527081159E+02  0.73025100313E+01  0.29579275218E+03  0.31270892580E+03  0.81833489426E+02 0.  0.
         -6    2    1    2    0  502  0.10414659453E+03 -0.10824104737E+03 -0.15908764930E+02  0.23689817704E+03  0.18249663009E+03 0.  0.
        -24    2    5    5    0    0  0.10174924453E+03 -0.55566993787E+02 -0.73940983038E+02  0.15834799215E+03  0.78525270346E+02 0.  0.
          5    1    3    3  501    0 -0.44619513376E+02  0.10093853734E+03  0.72248428497E+03  0.73087969004E+03  0.47000000000E+01 0. -1.
        -13    1    4    4    0    0 -0.40202163960E+02  0.74722786104E+01  0.28951614913E+03  0.29238955101E+03  0.00000000000E+00 0.  1.
         14    1    4    4    0    0 -0.19324917199E+02 -0.16976857913E+00  0.62766030519E+01  0.20319374793E+02  0.00000000000E+00 0. -1.
         -5    1    5    5    0  502  0.23973500041E+01 -0.52674053583E+02  0.58032218108E+02  0.78550184891E+02  0.47000000000E+01 0.  1.
         11    1    6    6    0    0  0.80045198439E+02 -0.18364108197E+02 -0.12137559334E+02  0.83016833291E+02  0.00000000000E+00 0. -1.
        -12    1    6    6    0    0  0.21704046091E+02 -0.37202885589E+02 -0.61803423704E+02  0.75331158855E+02  0.00000000000E+00 0.  1.
</event>
<event>
12    1  0.8297444E-002  0.2090345E+03  0.7818608E-02  0.1142485E+00
         21   -1    0    0  501  502  0.00000000000E+00  0.00000000000E+00  0.89932491973E+03  0.89932491973E+03  0.00000000000E+00 0. -1.
         21   -1    0    0  502  503 -0.00000000000E+00 -0.00000000000E+00 -0.48533430270E+02  0.48533430270E+02  0.00000000000E+00 0.  1.
         -6    2    1    2    0  503 -0.86492202692E+02 -0.81054542496E+02  0.40221877742E+03  0.45329392084E+03  0.17217634498E+03 0.  0.
        -24    2    3    3    0    0 -0.16392521826E+01 -0.92894495954E+02  0.21280047559E+03  0.24534779614E+03  0.79242817542E+02 0.  0.
          6    2    1    2  501    0  0.86492202692E+02  0.81054542496E+02  0.44857271204E+03  0.49456442917E+03  0.17124764706E+03 0.  0.
         24    2    5    5    0    0  0.23453591521E+02  0.88196703571E+01  0.33787532695E+03  0.34804567843E+03  0.79675593341E+02 0.  0.
          5    1    5    5  501    0  0.63038611170E+02  0.72234872139E+02  0.11069738510E+03  0.14651875074E+03  0.47000000000E+01 0. -1.
        -13    1    6    6    0    0  0.27023528256E+02  0.18033225448E+02  0.47761100248E+02  0.57763232219E+02  0.00000000000E+00 0.  1.
         14    1    6    6    0    0 -0.35699367345E+01 -0.92135550910E+01  0.29011422670E+03  0.29028244621E+03  0.00000000000E+00 0. -1.
         -5    1    3    3    0  503 -0.84852950509E+02  0.11839953458E+02  0.18941830183E+03  0.20794612470E+03  0.47000000000E+01 0.  1.
         13    1    4    4    0    0 -0.26959530464E+02 -0.43255156692E+02  0.16240558576E+03  0.17021574296E+03  0.00000000000E+00 0. -1.
        -14    1    4    4    0    0  0.25320278281E+02 -0.49639339262E+02  0.50394889830E+02  0.75132053184E+02  0.00000000000E+00 0.  1.
</event>
<event>
12    1  0.8297444E-002  0.2589304E+03  0.7818608E-02  0.1109051E+00
         21   -1    0    0  503  502  0.00000000000E+00  0.00000000000E+00  0.10562367314E+04  0.10562367314E+04  0.00000000000E+00 0.  1.
         21   -1    0    0  501  503 -0.00000000000E+00 -0.00000000000E+00 -0.66395470644E+02  0.66395470644E+02  0.00000000000E+00 0. -1.
          6    2    1    2  501    0  0.24883650720E+02  0.17989227801E+03  0.64030423810E+03  0.68763670000E+03  0.17284179499E+03 0.  0.
         24    2    3    3    0    0 -0.34956958637E+02  0.15878114534E+03  0.40206683234E+03  0.44104852114E+03  0.80203611261E+02 0.  0.
         -6    2    1    2    0  502 -0.24883650720E+02 -0.17989227801E+03  0.34953702269E+03  0.43499550207E+03  0.18456578457E+03 0.  0.
        -24    2    5    5    0    0  0.13007113997E+02 -0.19664883285E+03  0.25789446043E+03  0.33431312329E+03  0.80098459449E+02 0.  0.
          5    1    3    3  501    0  0.59840609357E+02  0.21111132678E+02  0.23823740576E+03  0.24658817886E+03  0.47000000000E+01 0. -1.
        -11    1    4    4    0    0 -0.56158236575E+02  0.69493968322E+02  0.18875710177E+03  0.20883582700E+03  0.00000000000E+00 0.  1.
         12    1    4    4    0    0  0.21201277937E+02  0.89287177014E+02  0.21330973057E+03  0.23221269414E+03  0.00000000000E+00 0. -1.
         -5    1    5    5    0  502 -0.37890764716E+02  0.16756554839E+02  0.91642562256E+02  0.10068237878E+03  0.47000000000E+01 0.  1.
         13    1    6    6    0    0  0.18551519334E+00 -0.97674669424E+02  0.65590239635E+02  0.11765396295E+03  0.00000000000E+00 0. -1.
        -14    1    6    6    0    0  0.12821598803E+02 -0.98974163428E+02  0.19230422080E+03  0.21665916034E+03  0.00000000000E+00 0.  1.
</event>
<event>
12    1  0.8297444E-002  0.2338865E+03  0.7818608E-02  0.1124139E+00
         21   -1    0    0  501  502  0.00000000000E+00  0.00000000000E+00  0.17431181442E+03  0.17431181442E+03  0.00000000000E+00 0. -1.
         21   -1    0    0  502  503 -0.00000000000E+00 -0.00000000000E+00 -0.31973628152E+03  0.31973628152E+03  0.00000000000E+00 0.  1.
         -6    2    1    2    0  503 -0.93643547469E+02  0.12887367689E+03 -0.35051600397E+02  0.23649844795E+03  0.17124649666E+03 0.  0.
        -24    2    3    3    0    0 -0.11941787413E+03  0.12095356124E+03 -0.62317779189E+02  0.19786454247E+03  0.79852857986E+02 0.  0.
          6    2    1    2  501    0  0.93643547469E+02 -0.12887367689E+03 -0.11037286670E+03  0.25754964799E+03  0.16962344442E+03 0.  0.
         24    2    5    5    0    0  0.12876388472E+03 -0.11714811805E+03 -0.73831930523E+02  0.20531692994E+03  0.80000426138E+02 0.  0.
          5    1    5    5  501    0 -0.35120337250E+02 -0.11725558834E+02 -0.36540936176E+02  0.52232718052E+02  0.47000000000E+01 0. -1.
        -13    1    6    6    0    0  0.67473171245E+02 -0.18228930630E+02 -0.51520703598E+02  0.86829175103E+02  0.00000000000E+00 0.  1.
         14    1    6    6    0    0  0.61290713473E+02 -0.98919187422E+02 -0.22311226925E+02  0.11848775483E+03  0.00000000000E+00 0. -1.
         -5    1    3    3    0  503  0.25774326661E+02  0.79201156508E+01  0.27266178792E+02  0.38633905480E+02  0.47000000000E+01 0.  1.
         13    1    4    4    0    0 -0.78701245619E+02  0.10802675755E+03 -0.15604185100E+02  0.13456283662E+03  0.00000000000E+00 0. -1.
        -14    1    4    4    0    0 -0.40716628510E+02  0.12926803690E+02 -0.46713594088E+02  0.63301705850E+02  0.00000000000E+00 0.  1.
</event>
<event>
12    1  0.8297444E-002  0.2063761E+03  0.7818608E-02  0.1144482E+00
         21   -1    0    0  501  502  0.00000000000E+00  0.00000000000E+00  0.67735805517E+03  0.67735805517E+03  0.00000000000E+00 0. -1.
         21   -1    0    0  502  503 -0.00000000000E+00 -0.00000000000E+00 -0.12944496221E+03  0.12944496221E+03  0.00000000000E+00 0. -1.
         -6    2    1    2    0  503 -0.62888675308E+02  0.95670408822E+02 -0.15394105806E+02  0.20688127363E+03  0.17162479506E+03 0.  0.
        -24    2    3    3    0    0  0.20885978038E+02  0.66747103314E+01 -0.54086345167E+01  0.84161159020E+02  0.81074481334E+02 0.  0.
          6    2    1    2  501    0  0.62888675308E+02 -0.95670408822E+02  0.56330719876E+03  0.59992174375E+03  0.17170697669E+03 0.  0.
         24    2    5    5    0    0  0.10575804973E+03 -0.69182188777E+02  0.46705006712E+03  0.49117003362E+03  0.84506191504E+02 0.  0.
          5    1    5    5  501    0 -0.42869374426E+02 -0.26488220045E+02  0.96257131636E+02  0.10875171013E+03  0.47000000000E+01 0. -1.
        -13    1    6    6    0    0  0.79141615332E+02 -0.71730346071E+02  0.24182432961E+03  0.26436271336E+03  0.00000000000E+00 0.  1.
         14    1    6    6    0    0  0.26616434401E+02  0.25481572938E+01  0.22522573751E+03  0.22680732026E+03  0.00000000000E+00 0. -1.
         -5    1    3    3    0  503 -0.83774653346E+02  0.88995698491E+02 -0.99854712891E+01  0.12272011461E+03  0.47000000000E+01 0.  1.
         13    1    4    4    0    0 -0.23055475243E+02 -0.15661952422E+02 -0.18134402170E+02  0.33252191423E+02  0.00000000000E+00 0. -1.
        -14    1    4    4    0    0  0.43941453281E+02  0.22336662753E+02  0.12725767654E+02  0.50908967597E+02  0.00000000000E+00 0.  1.
</event>
<event>
12    1  0.8297444E-002  0.2103597E+03  0.7818608E-02  0.1141642E+00
         21   -1    0    0  501  502  0.00000000000E+00  0.00000000000E+00  0.24985103341E+03  0.24985103341E+03  0.00000000000E+00 0.  1.
         21   -1    0    0  502  503 -0.00000000000E+00 -0.00000000000E+00 -0.20043675724E+03  0.20043675724E+03  0.00000000000E+00 0.  1.
         -6    2    1    2    0  503  0.59521432151E+02  0.10278455229E+03  0.10407781042E+03  0.23469855892E+03  0.17361957800E+03 0.  0.
        -24    2    3    3    0    0 -0.16946825036E+02  0.65232317421E+01  0.66585705833E+02  0.10608524664E+03  0.80564731130E+02 0.  0.
          6    2    1    2  501    0 -0.59521432151E+02 -0.10278455229E+03 -0.54663534259E+02  0.21558923173E+03  0.17141513873E+03 0.  0.
         24    2    5    5    0    0 -0.73069753368E+02 -0.61935438403E+02  0.23007655651E+02  0.12666729487E+03  0.79624518729E+02 0.  0.
          5    1    5    5  501    0  0.13548321217E+02 -0.40849113882E+02 -0.77671189910E+02  0.88921936859E+02  0.47000000000E+01 0. -1.
        -11    1    6    6    0    0 -0.86525141167E+02 -0.60747743554E+02  0.73320929930E+01  0.10597475166E+03  0.00000000000E+00 0.  1.
         12    1    6    6    0    0  0.13455387799E+02 -0.11876948496E+01  0.15675562658E+02  0.20692543211E+02  0.00000000000E+00 0. -1.
         -5    1    3    3    0  503  0.76468257187E+02  0.96261320544E+02  0.37492104588E+02  0.12861331228E+03  0.47000000000E+01 0.  1.
         13    1    4    4    0    0 -0.11916022211E+02 -0.34705836259E+01  0.84258919591E+02  0.85168081267E+02  0.00000000000E+00 0. -1.
        -14    1    4    4    0    0 -0.50308028243E+01  0.99938153680E+01 -0.17673213758E+02  0.20917165372E+02  0.00000000000E+00 0.  1.
</event>
<event>
12    1  0.8297444E-002  0.4232465E+03  0.7818608E-02  0.1036227E+00
         21   -1    0    0  501  502  0.00000000000E+00  0.00000000000E+00  0.26227401747E+03  0.26227401747E+03  0.00000000000E+00 0. -1.
         21   -1    0    0  502  503 -0.00000000000E+00 -0.00000000000E+00 -0.67942551297E+03  0.67942551297E+03  0.00000000000E+00 0.  1.
         -6    2    1    2    0  503 -0.38038623473E+03 -0.69497176309E+02 -0.19491570653E+03  0.46597184239E+03  0.17208742012E+03 0.  0.
        -24    2    3    3    0    0 -0.26066487427E+03  0.13828414393E+02 -0.15690434683E+03  0.31516298429E+03  0.81063745833E+02 0.  0.
          6    2    1    2  501    0  0.38038623473E+03  0.69497176309E+02 -0.22223578897E+03  0.47572768804E+03  0.16554317318E+03 0.  0.
         24    2    5    5    0    0  0.10525920705E+03  0.15386408324E+01 -0.38133804793E+02  0.13775006381E+03  0.80243535115E+02 0.  0.
          5    1    5    5  501    0  0.27512702768E+03  0.67958535476E+02 -0.18410198418E+03  0.33797762423E+03  0.47000000000E+01 0. -1.
        -11    1    6    6    0    0  0.41544824385E+02 -0.37373311964E+02 -0.27691644819E+02  0.62366369728E+02  0.00000000000E+00 0.  1.
         12    1    6    6    0    0  0.63714382662E+02  0.38911952796E+02 -0.10442159975E+02  0.75383694081E+02  0.00000000000E+00 0. -1.
         -5    1    3    3    0  503 -0.11972136046E+03 -0.83325590702E+02 -0.38011359696E+02  0.15080885810E+03  0.47000000000E+01 0.  1.
         13    1    4    4    0    0 -0.93964231683E+02 -0.10946510520E+02 -0.16971000547E+02  0.96109925543E+02  0.00000000000E+00 0. -1.
        -14    1    4    4    0    0 -0.16670064258E+03  0.24774924913E+02 -0.13993334629E+03  0.21905305874E+03  0.00000000000E+00 0.  1.
</event>
<event>
12    1  0.8297444E-002  0.1720492E+03  0.7818608E-02  0.1175995E+00
         21   -1    0    0  503  502  0.00000000000E+00  0.00000000000E+00  0.13223438653E+03  0.13223438653E+03  0.00000000000E+00 0. -1.
         21   -1    0    0  501  503 -0.00000000000E+00 -0.00000000000E+00 -0.33145855632E+03  0.33145855632E+03  0.00000000000E+00 0. -1.
          6    2    1    2  501    0 -0.50404959590E+01  0.54614130822E+01 -0.23233670225E+03  0.28848628344E+03  0.17084717992E+03 0.  0.
         24    2    3    3    0    0  0.27384302177E+02  0.39871573779E+02 -0.22003531105E+03  0.23940633928E+03  0.80995152800E+02 0.  0.
         -6    2    1    2    0  502  0.50404959590E+01 -0.54614130822E+01  0.33112532469E+02  0.17520665941E+03  0.17188862691E+03 0.  0.
        -24    2    5    5    0    0  0.60266552774E+02  0.24372267188E+02 -0.26134114188E+01  0.10282987517E+03  0.79630952005E+02 0.  0.
          5    1    3    3  501    0 -0.32424798136E+02 -0.34410160697E+02 -0.12301391203E+02  0.49079944161E+02  0.47000000000E+01 0. -1.
        -13    1    4    4    0    0 -0.92202714987E+01 -0.21209680528E+02 -0.54661007120E+02  0.59352250623E+02  0.00000000000E+00 0.  1.
         14    1    4    4    0    0  0.36604573676E+02  0.61081254307E+02 -0.16537430393E+03  0.18005408866E+03  0.00000000000E+00 0. -1.
         -5    1    5    5    0  502 -0.55226056815E+02 -0.29833680270E+02  0.35725943888E+02  0.72376784237E+02  0.47000000000E+01 0.  1.
         11    1    6    6    0    0 -0.89705881387E+01  0.16946480450E+02  0.21806839955E+02  0.29037784351E+02  0.00000000000E+00 0. -1.
        -12    1    6    6    0    0  0.69237140913E+02  0.74257867380E+01 -0.24420251373E+02  0.73792090820E+02  0.00000000000E+00 0.  1.
</event>
<event>
12    1  0.8297444E-002  0.2349197E+03  0.7818608E-02  0.1123551E+00
         21   -1    0    0  501  502  0.00000000000E+00  0.00000000000E+00  0.60820118926E+03  0.60820118926E+03  0.00000000000E+00 0. -1.
         21   -1    0    0  502  503 -0.00000000000E+00 -0.00000000000E+00 -0.31404304586E+03  0.31404304586E+03  0.00000000000E+00 0. -1.
         -6    2    1    2    0  503  0.57746462336E+02 -0.15073496596E+03 -0.24256827731E+03  0.33635813818E+03  0.16805280148E+03 0.  0.
        -24    2    3    3    0    0  0.74293216571E+02 -0.15653376760E+03 -0.25150110507E+03  0.31612681128E+03  0.81615271404E+02 0.  0.
          6    2    1    2  501    0 -0.57746462336E+02  0.15073496596E+03  0.53672642071E+03  0.58588609694E+03  0.17067977040E+03 0.  0.
         24    2    5    5    0    0 -0.23058423041E+01  0.12035872018E+03  0.47915727260E+03  0.50025505426E+03  0.78561370844E+02 0.  0.
          5    1    5    5  501    0 -0.55440620031E+02  0.30376245782E+02  0.57569148108E+02  0.85631042684E+02  0.47000000000E+01 0. -1.
        -11    1    6    6    0    0 -0.15874505167E+02 -0.54522539412E+01  0.69566118674E+02  0.71562363396E+02  0.00000000000E+00 0.  1.
         12    1    6    6    0    0  0.13568662863E+02  0.12581097412E+03  0.40959115393E+03  0.42869269086E+03  0.00000000000E+00 0. -1.
         -5    1    3    3    0  503 -0.16546754236E+02  0.57988016435E+01  0.89328277656E+01  0.20231326900E+02  0.47000000000E+01 0.  1.
         13    1    4    4    0    0 -0.17421280298E+02 -0.23817732904E+02 -0.49295723276E+02  0.57453056848E+02  0.00000000000E+00 0. -1.
        -14    1    4    4    0    0  0.91714496869E+02 -0.13271603470E+03 -0.20220538180E+03  0.25867375443E+03  0.00000000000E+00 0.  1.
</event>
<event>
12    1  0.8297444E-002  0.2097312E+03  0.7818608E-02  0.1141896E+00
         21   -1    0    0  503  502  0.00000000000E+00  0.00000000000E+00  0.61180369809E+03  0.61180369809E+03  0.00000000000E+00 0.  1.
         21   -1    0    0  501  503 -0.00000000000E+00 -0.00000000000E+00 -0.97070001157E+02  0.97070001157E+02  0.00000000000E+00 0. -1.
          6    2    1    2  501    0  0.11728423776E+03  0.25116760272E+02  0.76421141761E+02  0.22322040919E+03  0.17204858644E+03 0.  0.
         24    2    3    3    0    0  0.30225885585E+02  0.65879343092E+02  0.67414040361E+02  0.12655623425E+03  0.78855155722E+02 0.  0.
         -6    2    1    2    0  502 -0.11728423776E+03 -0.25116760272E+02  0.43831255517E+03  0.48565329006E+03  0.17133236137E+03 0.  0.
        -24    2    5    5    0    0 -0.55783763654E+02 -0.68531159759E+02  0.35034588880E+03  0.36977687835E+03  0.78640637205E+02 0.  0.
          5    1    3    3  501    0  0.87058352170E+02 -0.40762582820E+02  0.90071013998E+01  0.96664174938E+02  0.47000000000E+01 0. -1.
        -13    1    4    4    0    0  0.21696041784E+02  0.16967475027E+02  0.71614878550E+02  0.76728770794E+02  0.00000000000E+00 0.  1.
         14    1    4    4    0    0  0.85298438010E+01  0.48911868065E+02 -0.42008381885E+01  0.49827463455E+02  0.00000000000E+00 0. -1.
         -5    1    5    5    0  502 -0.61500474102E+02  0.43414399486E+02  0.87966666372E+02  0.11587641171E+03  0.47000000000E+01 0.  1.
         11    1    6    6    0    0 -0.48318702386E+01  0.16751669445E+02  0.34166680258E+02  0.38357886270E+02  0.00000000000E+00 0. -1.
        -12    1    6    6    0    0 -0.50951893415E+02 -0.85282829203E+02  0.31617920854E+03  0.33141899208E+03  0.00000000000E+00 0.  1.
</event>
<event>
12    1  0.8297444E-002  0.1873592E+03  0.7818608E-02  0.1162418E+00
         21   -1    0    0  503  502  0.00000000000E+00  0.00000000000E+00  0.12553635915E+03  0.12553635915E+03  0.00000000000E+00 0.  1.
         21   -1    0    0  501  503 -0.00000000000E+00 -0.00000000000E+00 -0.28454531807E+03  0.28454531807E+03  0.00000000000E+00 0.  1.
          6    2    1    2  501    0 -0.23547716601E+02  0.53454724264E+02 -0.12479069512E+03  0.21962343645E+03  0.17102582771E+03 0.  0.
         24    2    3    3    0    0  0.32675955398E+02  0.65889283138E+02 -0.12323296458E+03  0.16182866098E+03  0.74786604826E+02 0.  0.
         -6    2    1    2    0  502  0.23547716601E+02 -0.53454724264E+02 -0.34218263790E+02  0.19045824077E+03  0.17802120491E+03 0.  0.
        -24    2    5    5    0    0  0.80707507483E+02 -0.11166680379E+02 -0.35265651462E+02  0.11919319064E+03  0.79529579446E+02 0.  0.
          5    1    3    3  501    0 -0.56223672000E+02 -0.12434558874E+02 -0.15577305466E+01  0.57794775473E+02  0.47000000000E+01 0. -1.
        -11    1    4    4    0    0  0.22682612920E+02  0.41861083654E+02 -0.12690967973E+03  0.13554673756E+03  0.00000000000E+00 0.  1.
         12    1    4    4    0    0  0.99933424788E+01  0.24028199484E+02  0.36767151518E+01  0.26281923420E+02  0.00000000000E+00 0. -1.
         -5    1    5    5    0  502 -0.57159790882E+02 -0.42288043885E+02  0.10473876716E+01  0.71265050131E+02  0.47000000000E+01 0.  1.
         13    1    6    6    0    0  0.65439512238E+02 -0.42386100814E+02 -0.32029389042E+02  0.84289934551E+02  0.00000000000E+00 0. -1.
        -14    1    6    6    0    0  0.15267995245E+02  0.31219420435E+02 -0.32362624194E+01  0.34903256088E+02  0.00000000000E+00 0.  1.
</event>
<event>
12    1  0.8297444E-002  0.2813504E+03  0.7818608E-02  0.1095157E+00
         21   -1    0    0  501  502  0.00000000000E+00  0.00000000000E+00  0.16508812167E+03  0.16508812167E+03  0.00000000000E+00 0.  1.
         21   -1    0    0  502  503 -0.00000000000E+00 -0.00000000000E+00 -0.60516451335E+03  0.60516451335E+03  0.00000000000E+00 0.  1.
         -6    2    1    2    0  503 -0.21553579078E+03  0.49018846965E+02 -0.39685091141E+03  0.48560109794E+03  0.17163698894E+03 0.  0.
        -24    2    3    3    0    0 -0.12111238455E+03 -0.14048884379E+02 -0.12684280665E+03  0.19265095711E+03  0.78483838027E+02 0.  0.
          6    2    1    2  501    0  0.21553579078E+03 -0.49018846965E+02 -0.43225480270E+02  0.28465153707E+03  0.17406760453E+03 0.  0.
         24    2    5    5    0    0  0.21062722552E+03 -0.18472066941E+01 -0.58734304147E+02  0.23453296490E+03  0.84786513300E+02 0.  0.
          5    1    5    5  501    0  0.49085652649E+01 -0.47171640271E+02  0.15508823877E+02  0.50118572175E+02  0.47000000000E+01 0. -1.
        -13    1    6    6    0    0  0.10691689074E+03  0.34949547234E+02 -0.52983731884E+02  0.12433812055E+03  0.00000000000E+00 0.  1.
         14    1    6    6    0    0  0.10371033477E+03 -0.36796753928E+02 -0.57505722628E+01  0.11019484434E+03  0.00000000000E+00 0. -1.
         -5    1    3    3    0  503 -0.94423406230E+02  0.63067731344E+02 -0.27000810475E+03  0.29295014083E+03  0.47000000000E+01 0.  1.
         11    1    4    4    0    0 -0.13348350241E+02 -0.18919354368E+01  0.10902140637E+02  0.17338239366E+02  0.00000000000E+00 0. -1.
        -12    1    4    4    0    0 -0.10776403431E+03 -0.12156948943E+02 -0.13774494729E+03  0.17531271774E+03  0.00000000000E+00 0.  1.
</event>
<event>
12    1  0.8297444E-002  0.1876571E+03  0.7818608E-02  0.1161343E+00
         21   -1    0    0  501  502  0.00000000000E+00  0.00000000000E+00  0.16224026995E+03  0.16224026995E+03  0.00000000000E+00 0. -1.
         21   -1    0    0  502  503 -0.00000000000E+00 -0.00000000000E+00 -0.42836853505E+03  0.42836853505E+03  0.00000000000E+00 0. -1.
         -6    2    1    2    0  503  0.60262013833E+02  0.45017122995E+02 -0.34287447952E+03  0.39086836961E+03  0.17192184846E+03 0.  0.
        -24    2    3    3    0    0 -0.18588311620E+02  0.56347033926E+02 -0.14882864375E+03  0.18105507859E+03  0.84323559710E+02 0.  0.
          6    2    1    2  501    0 -0.60262013833E+02 -0.45017122995E+02  0.76746214420E+02  0.19974043540E+03  0.16836926213E+03 0.  0.
         24    2    5    5    0    0 -0.65063086127E+02 -0.18576756371E+02 -0.12635731844E+02  0.10628795763E+03  0.80988685414E+02 0.  0.
          5    1    5    5  501    0  0.48010722936E+01 -0.26440366624E+02  0.89381946264E+02  0.93452477765E+02  0.47000000000E+01 0. -1.
        -13    1    6    6    0    0  0.17814795902E+02  0.25831834622E+01 -0.10257378877E+02  0.20718436506E+02  0.00000000000E+00 0.  1.
         14    1    6    6    0    0 -0.82877882029E+02 -0.21159939833E+02 -0.23783529668E+01  0.85569521128E+02  0.00000000000E+00 0. -1.
         -5    1    3    3    0  503  0.78850325453E+02 -0.11329910931E+02 -0.19404583577E+03  0.20981329102E+03  0.47000000000E+01 0.  1.
         11    1    4    4    0    0  0.15996132201E+02  0.56860860355E+01 -0.10324648938E+03  0.10463290777E+03  0.00000000000E+00 0. -1.
        -12    1    4    4    0    0 -0.34584443821E+02  0.50660947891E+02 -0.45582154370E+02  0.76422170818E+02  0.00000000000E+00 0.  1.
</event>
<event>
12    1  0.8297444E-002  0.1995213E+03  0.7818608E-02  0.1150434E+00
         21   -1    0    0  503  502  0.00000000000E+00  0.00000000000E+00  0.64795761523E+03  0.64795761523E+03  0.00000000000E+00 0. -1.
         21   -1    0    0  501  503 -0.00000000000E+00 -0.00000000000E+00 -0.11196744203E+03  0.11196744203E+03  0.00000000000E+00 0.  1.
          6    2    1    2  501    0 -0.57387345474E+02 -0.79399202753E+02  0.12186512874E+02  0.19989316851E+03  0.17381377075E+03 0.  0.
         24    2    3    3    0    0 -0.34729203489E+02 -0.95464811671E+02  0.61707773949E+02  0.14292001266E+03  0.79363926389E+02 0.  0.
         -6    2    1    2    0  502  0.57387345474E+02  0.79399202753E+02  0.52380366033E+03  0.56003188876E+03  0.17224372568E+03 0.  0.
        -24    2    5    5    0    0 -0.25479467240E+02 -0.27387318334E+01  0.28637529091E+03  0.29544188601E+03  0.67958787997E+02 0.  0.
          5    1    3    3  501    0 -0.22658141986E+02  0.16065608918E+02 -0.49521261076E+02  0.56973155843E+02  0.47000000000E+01 0. -1.
        -11    1    4    4    0    0 -0.98672555400E+01 -0.37363548128E+01 -0.16672350782E+02  0.19730442463E+02  0.00000000000E+00 0.  1.
         12    1    4    4    0    0 -0.24861947949E+02 -0.91728456858E+02  0.78380124732E+02  0.12318957020E+03  0.00000000000E+00 0. -1.
         -5    1    5    5    0  502  0.82866812714E+02  0.82137934587E+02  0.23742836942E+03  0.26459000274E+03  0.47000000000E+01 0.  1.
         13    1    6    6    0    0  0.21620825200E+02 -0.10063496104E+01  0.14006324721E+03  0.14172574233E+03  0.00000000000E+00 0. -1.
        -14    1    6    6    0    0 -0.47100292440E+02 -0.17323822230E+01  0.14631204370E+03  0.15371614368E+03  0.00000000000E+00 0.  1.
</event>
<event>
12    1  0.8297444E-002  0.3115989E+03  0.7818608E-02  0.1079618E+00
         21   -1    0    0  501  502  0.00000000000E+00  0.00000000000E+00  0.39242276929E+03  0.39242276929E+03  0.00000000000E+00 0.  1.
         21   -1    0    0  502  503 -0.00000000000E+00 -0.00000000000E+00 -0.25212783225E+03  0.25212783225E+03  0.00000000000E+00 0. -1.
         -6    2    1    2    0  503  0.21422940468E+03 -0.14644678901E+03  0.24987508959E+02  0.31230120763E+03  0.17194990213E+03 0.  0.
        -24    2    3    3    0    0  0.14749253139E+03 -0.13978513014E+03 -0.25461449310E+02  0.22824542053E+03  0.10076585318E+03 0.  0.
          6    2    1    2  501    0 -0.21422940468E+03  0.14644678901E+03  0.11530742808E+03  0.33224939391E+03  0.17249045464E+03 0.  0.
         24    2    5    5    0    0 -0.10534447488E+03  0.86060982400E+01  0.72247087147E+02  0.15132878444E+03  0.80679836907E+02 0.  0.
          5    1    5    5  501    0 -0.10888492980E+03  0.13784069077E+03  0.43060340928E+02  0.18092060947E+03  0.47000000000E+01 0. -1.
        -13    1    6    6    0    0 -0.90333022638E+02  0.39277374705E+02  0.58145729064E+02  0.11438397157E+03  0.00000000000E+00 0.  1.
         14    1    6    6    0    0 -0.15011452246E+02 -0.30671276465E+02  0.14101358083E+02  0.36944812874E+02  0.00000000000E+00 0. -1.
         -5    1    3    3    0  503  0.66736873291E+02 -0.66616588768E+01  0.50448958269E+02  0.84055787106E+02  0.47000000000E+01 0.  1.
         11    1    4    4    0    0  0.25148907480E+02  0.11343675646E+02 -0.19366050187E+02  0.33707423877E+02  0.00000000000E+00 0. -1.
        -12    1    4    4    0    0  0.12234362391E+03 -0.15112880578E+03 -0.60953991224E+01  0.19453799665E+03  0.00000000000E+00 0.  1.
</event>
<event>
12    1  0.8297444E-002  0.1859037E+03  0.7818608E-02  0.1162346E+00
         21   -1    0    0  501  502  0.00000000000E+00  0.00000000000E+00  0.32804371221E+03  0.32804371221E+03  0.00000000000E+00 0.  1.
         21   -1    0    0  502  503 -0.00000000000E+00 -0.00000000000E+00 -0.15929907136E+03  0.15929907136E+03  0.00000000000E+00 0.  1.
         -6    2    1    2    0  503 -0.59761786039E+02 -0.35110438375E+02 -0.57958491948E+02  0.19416279824E+03  0.17185980181E+03 0.  0.
        -24    2    3    3    0    0 -0.37819707041E+02  0.18783470183E+02  0.21469928512E+02  0.95588094653E+02  0.83023954473E+02 0.  0.
          6    2    1    2  501    0  0.59761786039E+02  0.35110438375E+02  0.22670313280E+03  0.29317998533E+03  0.17249921571E+03 0.  0.
         24    2    5    5    0    0  0.10743124825E+03  0.17707768570E+02  0.17150737772E+03  0.21805414475E+03  0.79232513904E+02 0.  0.
          5    1    5    5  501    0 -0.47669462212E+02  0.17402669804E+02  0.55195755077E+02  0.75125840577E+02  0.47000000000E+01 0. -1.
        -11    1    6    6    0    0  0.45319904097E+02 -0.31664908283E+02  0.68250033913E+02  0.87832950839E+02  0.00000000000E+00 0.  1.
         12    1    6    6    0    0  0.62111344153E+02  0.49372676853E+02  0.10325734381E+03  0.13022119391E+03  0.00000000000E+00 0. -1.
         -5    1    3    3    0  503 -0.21942078998E+02 -0.53893908557E+02 -0.79428420460E+02  0.98574703587E+02  0.47000000000E+01 0.  1.
         13    1    4    4    0    0 -0.42493781191E+02 -0.24632201342E+02  0.71565157258E+01  0.49635496373E+02  0.00000000000E+00 0. -1.
        -14    1    4    4    0    0  0.46740741496E+01  0.43415671525E+02  0.14313412787E+02  0.45952598280E+02  0.00000000000E+00 0.  1.
</event>
<event>
12    1  0.8297444E-002  0.2063973E+03  0.7818608E-02  0.1144460E+00
         21   -1    0    0  503  502  0.00000000000E+00  0.00000000000E+00  0.64786657026E+03  0.64786657026E+03  0.00000000000E+00 0. -1.
         21   -1    0    0  501  503 -0.00000000000E+00 -0.00000000000E+00 -0.75392433951E+02  0.75392433951E+02  0.00000000000E+00 0. -1.
          6    2    1    2  501    0  0.43089277215E+02  0.10577569494E+03  0.15687045201E+03  0.25924537471E+03  0.17191463620E+03 0.  0.
         24    2    3    3    0    0  0.58340563822E+02  0.79024976813E+02  0.22973578845E+02  0.12177295817E+03  0.68207768393E+02 0.  0.
         -6    2    1    2    0  502 -0.43089277215E+02 -0.10577569494E+03  0.41560368430E+03  0.46401362951E+03  0.17186344148E+03 0.  0.
        -24    2    5    5    0    0  0.20992931482E+02 -0.19970043424E+02  0.27274947654E+03  0.28541196664E+03  0.78918996096E+02 0.  0.
          5    1    3    3  501    0 -0.15251286607E+02  0.26750718127E+02  0.13389687317E+03  0.13747241654E+03  0.47000000000E+01 0. -1.
        -13    1    4    4    0    0  0.36557367333E+02  0.47842984641E+01  0.24708804690E+02  0.44383055859E+02  0.00000000000E+00 0.  1.
         14    1    4    4    0    0  0.21783196489E+02  0.74240678349E+02 -0.17352258457E+01  0.77389902311E+02  0.00000000000E+00 0. -1.
         -5    1    5    5    0  502 -0.64082208697E+02 -0.85805651516E+02  0.14285420776E+03  0.17860166286E+03  0.47000000000E+01 0.  1.
         11    1    6    6    0    0  0.48890637791E+02 -0.21787556551E+02  0.14310848049E+03  0.15279080231E+03  0.00000000000E+00 0. -1.
        -12    1    6    6    0    0 -0.27897706309E+02  0.18175131272E+01  0.12964099605E+03  0.13262116433E+03  0.00000000000E+00 0.  1.
</event>
<event>
12    1  0.8297444E-002  0.2154239E+03  0.7818608E-02  0.1138146E+00
         21   -1    0    0  501  502  0.00000000000E+00  0.00000000000E+00  0.41339111614E+03  0.41339111614E+03  0.00000000000E+00 0. -1.
         21   -1    0    0  502  503 -0.00000000000E+00 -0.00000000000E+00 -0.15066137534E+03  0.15066137534E+03  0.00000000000E+00 0. -1.
         -6    2    1    2    0  503  0.11799596089E+03 -0.34902882760E+02 -0.14018982296E+02  0.21587954145E+03  0.17682247182E+03 0.  0.
        -24    2    3    3    0    0  0.14035102796E+03  0.74289576232E+01  0.10176429803E+02  0.16203493447E+03  0.79988497951E+02 0.  0.
          6    2    1    2  501    0 -0.11799596089E+03  0.34902882760E+02  0.27674872309E+03  0.34817295003E+03  0.17173610392E+03 0.  0.
         24    2    5    5    0    0 -0.56063376186E+02  0.43580314511E+02  0.26287702338E+03  0.28394323010E+03  0.80480323913E+02 0.  0.
          5    1    5    5  501    0 -0.61932584700E+02 -0.86774317517E+01  0.13871699713E+02  0.64229719930E+02  0.47000000000E+01 0. -1.
        -13    1    6    6    0    0  0.13341738719E+02  0.33677615691E+02  0.72013971282E+02  0.80611387846E+02  0.00000000000E+00 0.  1.
         14    1    6    6    0    0 -0.69405114905E+02  0.99026988209E+01  0.19086305210E+03  0.20333184226E+03  0.00000000000E+00 0. -1.
         -5    1    3    3    0  503 -0.22355067072E+02 -0.42331840383E+02 -0.24195412098E+02  0.53844606978E+02  0.47000000000E+01 0.  1.
         13    1    4    4    0    0  0.13109483539E+03 -0.91212004389E+01 -0.13041517684E+02  0.13205731084E+03  0.00000000000E+00 0. -1.
        -14    1    4    4    0    0  0.92561925673E+01  0.16550158062E+02  0.23217947487E+02  0.29977623625E+02  0.00000000000E+00 0.  1.
</event>
<event>
12    1  0.8297444E-002  0.1806797E+03  0.7818608E-02  0.1168549E+00
         21   -1    0    0  503  502  0.00000000000E+00  0.00000000000E+00  0.19565494764E+03  0.19565494764E+03  0.00000000000E+00 0.  1.
         21   -1    0    0  501  503 -0.00000000000E+00 -0.00000000000E+00 -0.42632612543E+03  0.42632612543E+03  0.00000000000E+00 0.  1.
          6    2    1    2  501    0  0.46624149288E+02  0.22705623253E+02 -0.36108431102E+03  0.40376605155E+03  0.17307740492E+03 0.  0.
         24    2    3    3    0    0  0.75035148895E+02  0.62368870684E+02 -0.29846260603E+03  0.32424293521E+03  0.80829476295E+02 0.  0.
         -6    2    1    2    0  502 -0.46624149288E+02 -0.22705623253E+02  0.13041313323E+03  0.21821502152E+03  0.16709534307E+03 0.  0.
        -24    2    5    5    0    0 -0.11024714028E+01 -0.36083918665E+02  0.10296897672E+02  0.88981891139E+02  0.80675189616E+02 0.  0.
          5    1    3    3  501    0 -0.28410999607E+02 -0.39663247431E+02 -0.62621704990E+02  0.79523116333E+02  0.47000000000E+01 0. -1.
        -11    1    4    4    0    0  0.79343215339E+01  0.29586434725E+01 -0.15403874921E+03  0.15427133009E+03  0.00000000000E+00 0.  1.
         12    1    4    4    0    0  0.67100827361E+02  0.59410227212E+02 -0.14442385682E+03  0.16997160512E+03  0.00000000000E+00 0. -1.
         -5    1    5    5    0  502 -0.45521677885E+02  0.13378295412E+02  0.12011623555E+03  0.12923313039E+03  0.47000000000E+01 0.  1.
         11    1    6    6    0    0 -0.24426827199E+02 -0.52934513288E+02 -0.35333576385E+00  0.58299720670E+02  0.00000000000E+00 0. -1.
        -12    1    6    6    0    0  0.23324355796E+02  0.16850594623E+02  0.10650233436E+02  0.30682170469E+02  0.00000000000E+00 0.  1.
</event>
<event>
12    1  0.8297444E-002  0.1861102E+03  0.7818608E-02  0.1162388E+00
         21   -1    0    0  503  502  0.00000000000E+00  0.00000000000E+00  0.34439718122E+03  0.34439718122E+03  0.00000000000E+00 0.  1.
         21   -1    0    0  501  503 -0.00000000000E+00 -0.00000000000E+00 -0.11604599630E+03  0.11604599630E+03  0.00000000000E+00 0. -1.
          6    2    1    2  501    0 -0.47868646835E+02  0.51815287583E+02  0.27385604622E+02  0.18653779886E+03  0.17049969996E+03 0.  0.
         24    2    3    3    0    0  0.27448628959E+01 -0.25500212135E+02  0.41922479250E+02  0.92874441093E+02  0.78805916343E+02 0.  0.
         -6    2    1    2    0  502  0.47868646835E+02 -0.51815287583E+02  0.20096558030E+03  0.27390537866E+03  0.17222299677E+03 0.  0.
        -24    2    5    5    0    0  0.66187940276E+02  0.25872291136E+02  0.11764709395E+03  0.15842803644E+03  0.78793306365E+02 0.  0.
          5    1    3    3  501    0 -0.50613509731E+02  0.77315499719E+02 -0.14536874629E+02  0.93663357766E+02  0.47000000000E+01 0. -1.
        -13    1    4    4    0    0 -0.14459933078E+02 -0.91932138708E+01  0.60422394418E+02  0.62805020445E+02  0.00000000000E+00 0.  1.
         14    1    4    4    0    0  0.17204795974E+02 -0.16306998264E+02 -0.18499915168E+02  0.30069420648E+02  0.00000000000E+00 0. -1.
         -5    1    5    5    0  502 -0.18319293441E+02 -0.77687578720E+02  0.83318486351E+02  0.11547734222E+03  0.47000000000E+01 0.  1.
         11    1    6    6    0    0  0.22050938529E+02 -0.13787412834E+02 -0.72448787068E+00  0.26016562520E+02  0.00000000000E+00 0. -1.
        -12    1    6    6    0    0  0.44137001747E+02  0.39659703971E+02  0.11837158182E+03  0.13241147392E+03  0.00000000000E+00 0.  1.
</event>
<event>
12    1  0.8297444E-002  0.2499642E+03  0.7818608E-02  0.1113372E+00
         21   -1    0    0  503  502  0.00000000000E+00  0.00000000000E+00  0.21289383876E+03  0.21289383876E+03  0.00000000000E+00 0.  1.
         21   -1    0    0  501  503 -0.00000000000E+00 -0.00000000000E+00 -0.79246907270E+03  0.79246907270E+03  0.00000000000E+00 0.  1.
          6    2    1    2  501    0 -0.10139726861E+03  0.15010522328E+03 -0.68886036900E+03  0.73281014096E+03  0.17224723677E+03 0.  0.
         24    2    3    3    0    0 -0.13435611025E+03  0.10590618483E+03 -0.45504553410E+03  0.49253673989E+03  0.79109529703E+02 0.  0.
         -6    2    1    2    0  502  0.10139726861E+03 -0.15010522328E+03  0.10928513506E+03  0.27255277050E+03  0.17183942453E+03 0.  0.
        -24    2    5    5    0    0 -0.44900478941E+01 -0.11438115950E+03  0.55644769941E+02  0.14850555651E+03  0.76513722376E+02 0.  0.
          5    1    3    3  501    0  0.32958841640E+02  0.44199038447E+02 -0.23381483490E+03  0.24027340107E+03  0.47000000000E+01 0. -1.
        -11    1    4    4    0    0 -0.48477605699E+02  0.86173603672E+02 -0.20951421489E+03  0.23167255872E+03  0.00000000000E+00 0.  1.
         12    1    4    4    0    0 -0.85878504550E+02  0.19732581161E+02 -0.24553131921E+03  0.26086418117E+03  0.00000000000E+00 0. -1.
         -5    1    5    5    0  502  0.10588731650E+03 -0.35724063777E+02  0.53640365119E+02  0.12404721399E+03  0.47000000000E+01 0.  1.
         13    1    6    6    0    0 -0.36820780786E+02 -0.60481423071E+02  0.11588513233E+02  0.71750024901E+02  0.00000000000E+00 0. -1.
        -14    1    6    6    0    0  0.32330732892E+02 -0.53899736433E+02  0.44056256707E+02  0.76755531605E+02  0.00000000000E+00 0.  1.
</event>
<event>
12    1  0.8297444E-002  0.1855567E+03  0.7818608E-02  0.1165157E+00
         21   -1    0    0  501  502  0.00000000000E+00  0.00000000000E+00  0.36399230885E+03  0.36399230885E+03  0.00000000000E+00 0. -1.
         21   -1    0    0  502  503 -0.00000000000E+00 -0.00000000000E+00 -0.94290591419E+02  0.94290591419E+02  0.00000000000E+00 0. -1.
         -6    2    1    2    0  503 -0.72057518167E+02  0.11988465176E+02  0.19244271231E+03  0.26733029956E+03  0.17057339276E+03 0.  0.
        -24    2    3    3    0    0 -0.48170418868E+01  0.46168355209E+02  0.16057581609E+03  0.18531118223E+03  0.80005753735E+02 0.  0.
          6    2    1    2  501    0  0.72057518167E+02 -0.11988465176E+02  0.77259005120E+02  0.19095260071E+03  0.15861252354E+03 0.  0.
         24    2    5    5    0    0  0.89689493539E+02 -0.50020952936E+02  0.73305711065E+02  0.14858427275E+03  0.78468196415E+02 0.  0.
          5    1    5    5  501    0 -0.17631975372E+02  0.38032487760E+02  0.39532940549E+01  0.42368327966E+02  0.47000000000E+01 0. -1.
        -11    1    6    6    0    0  0.49710247624E+02 -0.22436113029E+01  0.70410327835E+02  0.86219236696E+02  0.00000000000E+00 0.  1.
         12    1    6    6    0    0  0.39979245916E+02 -0.47777341633E+02  0.28953832302E+01  0.62365036050E+02  0.00000000000E+00 0. -1.
         -5    1    3    3    0  503 -0.67240476280E+02 -0.34179890033E+02  0.31866896223E+02  0.82019117332E+02  0.47000000000E+01 0.  1.
         11    1    4    4    0    0 -0.24375026522E+02  0.33851829218E+02  0.15634486619E+03  0.16181410768E+03  0.00000000000E+00 0. -1.
        -12    1    4    4    0    0  0.19557984635E+02  0.12316525991E+02  0.42309499018E+01  0.23497074553E+02  0.00000000000E+00 0.  1.
</event>
<event>
12    1  0.8297444E-002  0.1894844E+03  0.7818608E-02  0.1158936E+00
         21   -1    0    0  503  502  0.00000000000E+00  0.00000000000E+00  0.58545204384E+03  0.58545204384E+03  0.00000000000E+00 0. -1.
         21   -1    0    0  501  503 -0.00000000000E+00 -0.00000000000E+00 -0.61589398465E+02  0.61589398465E+02  0.00000000000E+00 0. -1.
          6    2    1    2  501    0  0.47523952318E+02  0.65927698644E+02  0.24034013132E+03  0.30605184828E+03  0.17117058048E+03 0.  0.
         24    2    3    3    0    0 -0.20070215219E+02  0.78505518311E+00  0.72490312483E+02  0.11367672732E+03  0.85229825057E+02 0.  0.
         -6    2    1    2    0  502 -0.47523952318E+02 -0.65927698644E+02  0.28352251406E+03  0.34098959403E+03  0.17112539193E+03 0.  0.
        -24    2    5    5    0    0 -0.40082670099E+01  0.27675794001E+02  0.10345663709E+03  0.13338169737E+03  0.79406458547E+02 0.  0.
          5    1    3    3  501    0  0.67594167537E+02  0.65142643461E+02  0.16784981884E+03  0.19237512096E+03  0.47000000000E+01 0. -1.
        -13    1    4    4    0    0 -0.34135849363E+02  0.31634431219E+02  0.18835372449E+02  0.50207217664E+02  0.00000000000E+00 0.  1.
         14    1    4    4    0    0  0.14065634144E+02 -0.30849376036E+02  0.53654940033E+02  0.63469509654E+02  0.00000000000E+00 0. -1.
         -5    1    5    5    0  502 -0.43515685309E+02 -0.93603492645E+02  0.18006587697E+03  0.20760789665E+03  0.47000000000E+01 0.  1.
         11    1    6    6    0    0 -0.21644997890E+02 -0.20712367534E+02  0.55193056145E+02  0.62799534626E+02  0.00000000000E+00 0. -1.
        -12    1    6    6    0    0  0.17636730880E+02  0.48388161535E+02  0.48263580942E+02  0.70582162749E+02  0.00000000000E+00 0.  1.
</event>
<event>
12    1  0.8297444E-002  0.1825184E+03  0.7818608E-02  0.1165393E+00
         21   -1    0    0  503  502  0.00000000000E+00  0.00000000000E+00  0.69378905350E+03  0.69378905350E+03  0.00000000000E+00 0.  1.
         21   -1    0    0  501  503 -0.00000000000E+00 -0.00000000000E+00 -0.52938617894E+02  0.52938617894E+02  0.00000000000E+00 0.  1.
          6    2    1    2  501    0 -0.17756537612E+02 -0.59301733609E+02  0.20652671805E+03  0.27561977712E+03  0.17170027967E+03 0.  0.
         24    2    3    3    0    0  0.13746771813E+02  0.18108088410E+02  0.15961928764E+03  0.17966595450E+03  0.79275857715E+02 0.  0.
         -6    2    1    2    0  502  0.17756537612E+02  0.59301733609E+02  0.43432371756E+03  0.47110789427E+03  0.17167867127E+03 0.  0.
        -24    2    5    5    0    0  0.66296425702E+02 -0.92622723646E+01  0.18698462886E+03  0.20984967248E+03  0.67768929915E+02 0.  0.
          5    1    3    3  501    0 -0.31503309424E+02 -0.77409822019E+02  0.46907430401E+02  0.95953822627E+02  0.47000000000E+01 0. -1.
        -11    1    4    4    0    0 -0.11509750760E+02 -0.13077746329E+02  0.26178560123E+01  0.17616894781E+02  0.00000000000E+00 0.  1.
         12    1    4    4    0    0  0.25256522572E+02  0.31185834739E+02  0.15700143163E+03  0.16204905972E+03  0.00000000000E+00 0. -1.
         -5    1    5    5    0  502 -0.48539888090E+02  0.68564005974E+02  0.24733908870E+03  0.26125822179E+03  0.47000000000E+01 0.  1.
         13    1    6    6    0    0 -0.13202374278E+02 -0.84608243992E+01  0.27872000510E+02  0.31980254041E+02  0.00000000000E+00 0. -1.
        -14    1    6    6    0    0  0.79498799980E+02 -0.80144796532E+00  0.15911262835E+03  0.17786941844E+03  0.00000000000E+00 0.  1.
</event>
<event>
12    1  0.8297444E-002  0.2040910E+03  0.7818608E-02  0.1146335E+00
         21   -1    0    0  503  502  0.00000000000E+00  0.00000000000E+00  0.25021937696E+03  0.25021937696E+03  0.00000000000E+00 0. -1.
         21   -1    0    0  501  503 -0.00000000000E+00 -0.00000000000E+00 -0.54386039207E+03  0.54386039207E+03  0.00000000000E+00 0.  1.
          6    2    1    2  501    0  0.10895246791E+03 -0.16510831269E+02 -0.47756451256E+03  0.51934175582E+03  0.17176946141E+03 0.  0.
         24    2    3    3    0    0 -0.32702360067E+01 -0.21270779436E+02 -0.29562985634E+03  0.30547520511E+03  0.73857622994E+02 0.  0.
         -6    2    1    2    0  502 -0.10895246791E+03  0.16510831269E+02  0.18392349745E+03  0.27473801320E+03  0.17178438571E+03 0.  0.
        -24    2    5    5    0    0 -0.59068975011E+02 -0.46456032002E+02  0.15771872349E+03  0.19010959651E+03  0.74961031391E+02 0.  0.
          5    1    3    3  501    0  0.11222270392E+03  0.47599481678E+01 -0.18193465621E+03  0.21386655071E+03  0.47000000000E+01 0. -1.
        -13    1    4    4    0    0  0.20990439433E+02  0.17062130610E+02 -0.16475557210E+03  0.16696141287E+03  0.00000000000E+00 0.  1.
         14    1    4    4    0    0 -0.24260675440E+02 -0.38332910046E+02 -0.13087428424E+03  0.13851379224E+03  0.00000000000E+00 0. -1.
         -5    1    5    5    0  502 -0.49883492903E+02  0.62966863270E+02  0.26204773957E+02  0.84628416696E+02  0.47000000000E+01 0.  1.
         11    1    6    6    0    0 -0.19989427410E+02 -0.50195870740E+02  0.13340823909E+03  0.14393387685E+03  0.00000000000E+00 0. -1.
        -12    1    6    6    0    0 -0.39079547601E+02  0.37398387377E+01  0.24310484403E+02  0.46175719663E+02  0.00000000000E+00 0.  1.
</event>
<event>
12    1  0.8297444E-002  0.2287958E+03  0.7818608E-02  0.1127742E+00
         21   -1    0    0  501  502  0.00000000000E+00  0.00000000000E+00  0.30927463098E+03  0.30927463098E+03  0.00000000000E+00 0.  1.
         21   -1    0    0  502  503 -0.00000000000E+00 -0.00000000000E+00 -0.17132216684E+03  0.17132216684E+03  0.00000000000E+00 0.  1.
         -6    2    1    2    0  503 -0.50088775937E+02  0.14280997655E+03  0.36396628084E+02  0.23027475777E+03  0.16970024942E+03 0.  0.
        -24    2    3    3    0    0 -0.19718245508E+02  0.65940839580E+02 -0.45613958979E+02  0.11374553514E+03  0.78233049154E+02 0.  0.
          6    2    1    2  501    0  0.50088775937E+02 -0.14280997655E+03  0.10155583606E+03  0.25032204005E+03  0.17159242705E+03 0.  0.
         24    2    5    5    0    0  0.41056927108E+02 -0.16502016511E+03  0.11734906152E+03  0.22122938222E+03  0.79084203008E+02 0.  0.
          5    1    5    5  501    0  0.90318488296E+01  0.22210188556E+02 -0.15793225458E+02  0.29092657825E+02  0.47000000000E+01 0. -1.
        -13    1    6    6    0    0  0.65491379729E+00 -0.64517904985E+02  0.87789383632E+02  0.10894936831E+03  0.00000000000E+00 0.  1.
         14    1    6    6    0    0  0.40402013310E+02 -0.10050226012E+03  0.29559677886E+02  0.11228001392E+03  0.00000000000E+00 0. -1.
         -5    1    3    3    0  503 -0.30370530429E+02  0.76869136969E+02  0.82010587063E+02  0.11652922263E+03  0.47000000000E+01 0.  1.
         13    1    4    4    0    0  0.15977478343E+02  0.62077423922E+02 -0.44107505649E+02  0.77809757932E+02  0.00000000000E+00 0. -1.
        -14    1    4    4    0    0 -0.35695723851E+02  0.38634156584E+01 -0.15064533303E+01  0.35935777207E+02  0.00000000000E+00 0.  1.
</event>
<event>
12    1  0.8297444E-002  0.1824172E+03  0.7818608E-02  0.1165730E+00
         21   -1    0    0  501  502  0.00000000000E+00  0.00000000000E+00  0.13748452433E+03  0.13748452433E+03  0.00000000000E+00 0. -1.
         21   -1    0    0  502  503 -0.00000000000E+00 -0.00000000000E+00 -0.48061638591E+03  0.48061638591E+03  0.00000000000E+00 0. -1.
         -6    2    1    2    0  503 -0.51969794435E+02  0.29606693980E+02 -0.39017628597E+03  0.43071287136E+03  0.17233289750E+03 0.  0.
        -24    2    3    3    0    0 -0.33264412577E+02  0.86397695762E+02 -0.27617596764E+03  0.30189799732E+03  0.79360901649E+02 0.  0.
          6    2    1    2  501    0  0.51969794435E+02 -0.29606693980E+02  0.47044424394E+02  0.18738803888E+03  0.17124159362E+03 0.  0.
         24    2    5    5    0    0  0.61042980535E+01  0.69126340708E+01  0.86841455635E+02  0.11637255623E+03  0.76916100152E+02 0.  0.
          5    1    5    5  501    0  0.45865496381E+02 -0.36519328051E+02 -0.39797031241E+02  0.71015482645E+02  0.47000000000E+01 0. -1.
        -11    1    6    6    0    0  0.19632616755E+02  0.32381370074E+02  0.18396443426E+02  0.42100141321E+02  0.00000000000E+00 0.  1.
         12    1    6    6    0    0 -0.13528318701E+02 -0.25468736003E+02  0.68445012209E+02  0.74272414911E+02  0.00000000000E+00 0. -1.
         -5    1    3    3    0  503 -0.18705381858E+02 -0.56791001782E+02 -0.11400031833E+03  0.12881487404E+03  0.47000000000E+01 0.  1.
         13    1    4    4    0    0  0.90339568469E+01  0.33248134677E+02 -0.18510894813E+03  0.18828800682E+03  0.00000000000E+00 0. -1.
        -14    1    4    4    0    0 -0.42298369424E+02  0.53149561085E+02 -0.91067019508E+02  0.11360999050E+03  0.00000000000E+00 0.  1.
</event>
<event>
12    1  0.8297444E-002  0.2069186E+03  0.7818608E-02  0.1144311E+00
         21   -1    0    0  501  502  0.00000000000E+00  0.00000000000E+00  0.31515740461E+02  0.31515740461E+02  0.00000000000E+00 0. -1.
         21   -1    0    0  502  503 -0.00000000000E+00 -0.00000000000E+00 -0.14422876629E+04  0.14422876629E+04  0.00000000000E+00 0. -1.
         -6    2    1    2    0  503  0.10328652892E+03 -0.53301626672E+02 -0.51620578162E+03  0.55561829939E+03  0.16951140131E+03 0.  0.
        -24    2    3    3    0    0  0.12997502981E+02  0.25155705253E+02 -0.23247697003E+03  0.24767059334E+03  0.80581862825E+02 0.  0.
          6    2    1    2  501    0 -0.10328652892E+03  0.53301626672E+02 -0.89456614086E+03  0.91818510402E+03  0.17119034553E+03 0.  0.
         24    2    5    5    0    0 -0.77915312198E+02  0.85445882837E+02 -0.51789959707E+03  0.53926990631E+03  0.96022103901E+02 0.  0.
          5    1    5    5  501    0 -0.25371216723E+02 -0.32144256165E+02 -0.37666654379E+03  0.37891519771E+03  0.47000000000E+01 0. -1.
        -13    1    6    6    0    0 -0.84295035191E+02  0.10132189863E+03 -0.47839400744E+03  0.49621830524E+03  0.00000000000E+00 0.  1.
         14    1    6    6    0    0  0.63797229929E+01 -0.15876015790E+02 -0.39505589632E+02  0.43051601073E+02  0.00000000000E+00 0. -1.
         -5    1    3    3    0  503  0.90289025940E+02 -0.78457331926E+02 -0.28372881159E+03  0.30794770605E+03  0.47000000000E+01 0.  1.
         13    1    4    4    0    0  0.32638064919E+02  0.57730444533E+01 -0.34730497543E+02  0.48008111643E+02  0.00000000000E+00 0. -1.
        -14    1    4    4    0    0 -0.19640561938E+02  0.19382660800E+02 -0.19774647249E+03  0.19966248169E+03  0.00000000000E+00 0.  1.
</event>
<event>
12    1  0.8297444E-002  0.2726747E+03  0.7818608E-02  0.1100180E+00
         21   -1    0    0  503  502  0.00000000000E+00  0.00000000000E+00  0.12325260525E+03  0.12325260525E+03  0.00000000000E+00 0.  1.
         21   -1    0    0  501  503 -0.00000000000E+00 -0.00000000000E+00 -0.72173280704E+03  0.72173280704E+03  0.00000000000E+00 0.  1.
          6    2    1    2  501    0  0.56273846356E+02 -0.19924820956E+03 -0.47373354973E+03  0.54513008960E+03  0.17284890409E+03 0.  0.
         24    2    3    3    0    0  0.10295615872E+03 -0.17131386720E+03 -0.39119738713E+03  0.44616608650E+03  0.77976723044E+02 0.  0.
         -6    2    1    2    0  502 -0.56273846356E+02  0.19924820956E+03 -0.12474665205E+03  0.29985532269E+03  0.17743982796E+03 0.  0.
        -24    2    5    5    0    0 -0.30204727406E+02  0.22280568126E+03 -0.11289038669E+03  0.26247599064E+03  0.74797788050E+02 0.  0.
          5    1    3    3  501    0 -0.46682312366E+02 -0.27934342359E+02 -0.82536162607E+02  0.98964003096E+02  0.47000000000E+01 0. -1.
        -11    1    4    4    0    0  0.47959802818E+02 -0.14660335381E+03 -0.28206080688E+03  0.32148247980E+03  0.00000000000E+00 0.  1.
         12    1    4    4    0    0  0.54996355904E+02 -0.24710513390E+02 -0.10913658024E+03  0.12468360671E+03  0.00000000000E+00 0. -1.
         -5    1    5    5    0  502 -0.26069118950E+02 -0.23557471697E+02 -0.11856265361E+02  0.37379332042E+02  0.47000000000E+01 0.  1.
         13    1    6    6    0    0  0.12154972507E+02  0.62469309122E+02 -0.33540916267E+01  0.63729175967E+02  0.00000000000E+00 0. -1.
        -14    1    6    6    0    0 -0.42359699914E+02  0.16033637214E+03 -0.10953629506E+03  0.19874681468E+03  0.00000000000E+00 0.  1.
</event>
<event>
12    1  0.8297444E-002  0.1780840E+03  0.7818608E-02  0.1170097E+00
         21   -1    0    0  503  502  0.00000000000E+00  0.00000000000E+00  0.12139859420E+03  0.12139859420E+03  0.00000000000E+00 0.  1.
         21   -1    0    0  501  503 -0.00000000000E+00 -0.00000000000E+00 -0.26909497525E+03  0.26909497525E+03  0.00000000000E+00 0.  1.
          6    2    1    2  501    0 -0.65116602329E+00 -0.42125559712E+02 -0.11186184582E+03  0.20883997275E+03  0.17124857626E+03 0.  0.
         24    2    3    3    0    0 -0.13969964969E+02 -0.62642897567E+02 -0.86224610489E+01  0.10263822076E+03  0.79630176374E+02 0.  0.
         -6    2    1    2    0  502  0.65116602329E+00  0.42125559712E+02 -0.35834535227E+02  0.18165359669E+03  0.17302869264E+03 0.  0.
        -24    2    5    5    0    0  0.32829910689E+01  0.37060603099E+02 -0.90427807146E+02  0.12656189471E+03  0.80352091160E+02 0.  0.
          5    1    3    3  501    0  0.13318798946E+02  0.20517337855E+02 -0.10323938477E+03  0.10620175199E+03  0.47000000000E+01 0. -1.
        -13    1    4    4    0    0 -0.23097178830E+02 -0.46497486502E+02 -0.40440174357E+02  0.65809601298E+02  0.00000000000E+00 0.  1.
         14    1    4    4    0    0  0.91272138609E+01 -0.16145411065E+02  0.31817713308E+02  0.36828619462E+02  0.00000000000E+00 0. -1.
         -5    1    5    5    0  502 -0.26318250456E+01  0.50649566127E+01  0.54593271919E+02  0.55091701983E+02  0.47000000000E+01 0.  1.
         11    1    6    6    0    0 -0.14725967592E+02 -0.20631888764E+02 -0.42252702007E+02  0.49272911243E+02  0.00000000000E+00 0. -1.
        -12    1    6    6    0    0  0.18008958661E+02  0.57692491863E+02 -0.48175105139E+02  0.77288983462E+02  0.00000000000E+00 0.  1.
</event>
<event>
12    1  0.8297444E-002  0.2962990E+03  0.7818608E-02  0.1087141E+00
         21   -1    0    0  501  502  0.00000000000E+00  0.00000000000E+00  0.17215108071E+03  0.17215108071E+03  0.00000000000E+00 0. -1.
         21   -1    0    0  502  503 -0.00000000000E+00 -0.00000000000E+00 -0.71535058567E+03  0.71535058567E+03  0.00000000000E+00 0.  1.
         -6    2    1    2    0  503  0.11612939387E+02  0.24087258768E+03 -0.33465801466E+02  0.29790728795E+03  0.17168089144E+03 0.  0.
        -24    2    3    3    0    0 -0.18603920038E+02  0.17482820603E+03 -0.82406593544E+02  0.21020204255E+03  0.80517355687E+02 0.  0.
          6    2    1    2  501    0 -0.11612939387E+02 -0.24087258768E+03 -0.50973370350E+03  0.58959437843E+03  0.17215870219E+03 0.  0.
         24    2    5    5    0    0 -0.56729181219E+02 -0.10495393208E+03 -0.33058936520E+03  0.36019485759E+03  0.78850993608E+02 0.  0.
          5    1    5    5  501    0  0.45116241832E+02 -0.13591865560E+03 -0.17914433830E+03  0.22939952084E+03  0.47000000000E+01 0. -1.
        -13    1    6    6    0    0  0.16710022563E+02 -0.45651419900E+02 -0.11215941486E+03  0.12224161048E+03  0.00000000000E+00 0.  1.
         14    1    6    6    0    0 -0.73439203781E+02 -0.59302512183E+02 -0.21842995034E+03  0.23795324711E+03  0.00000000000E+00 0. -1.
         -5    1    3    3    0  503  0.30216859425E+02  0.66044381654E+02  0.48940792078E+02  0.87705245400E+02  0.47000000000E+01 0.  1.
         11    1    4    4    0    0  0.23946177594E+01  0.15645949198E+03 -0.43656721447E+02  0.16245373543E+03  0.00000000000E+00 0. -1.
        -12    1    4    4    0    0 -0.20998537797E+02  0.18368714044E+02 -0.38749872097E+02  0.47748307120E+02  0.00000000000E+00 0.  1.
</event>
<event>
12    1  0.8297444E-002  0.1792775E+03  0.7818608E-02  0.1168769E+00
         21   -1    0    0  503  502  0.00000000000E+00  0.00000000000E+00  0.45381074372E+02  0.45381074372E+02  0.00000000000E+00 0. -1.
         21   -1    0    0  501  503 -0.00000000000E+00 -0.00000000000E+00 -0.12390819943E+04  0.12390819943E+04  0.00000000000E+00 0. -1.
          6    2    1    2  501    0  0.43721567622E+02 -0.26183095838E+02 -0.17582384723E+03  0.25110645108E+03  0.17188162943E+03 0.  0.
         24    2    3    3    0    0 -0.37543380918E+02 -0.41085166358E+02 -0.10359010081E+03  0.14126170751E+03  0.78271736135E+02 0.  0.
         -6    2    1    2    0  502 -0.43721567622E+02  0.26183095838E+02 -0.10178770727E+04  0.10333566176E+04  0.17074845248E+03 0.  0.
        -24    2    5    5    0    0 -0.88598036550E+02  0.22941833212E+02 -0.57997028862E+03  0.59311935794E+03  0.83958902399E+02 0.  0.
          5    1    3    3  501    0  0.81264948540E+02  0.14902070520E+02 -0.72233746416E+02  0.10984474356E+03  0.47000000000E+01 0. -1.
        -11    1    4    4    0    0 -0.20034536156E+01  0.50989578753E+01 -0.77020035766E+02  0.77214630137E+02  0.00000000000E+00 0.  1.
         12    1    4    4    0    0 -0.35539927302E+02 -0.46184124234E+02 -0.26570065048E+02  0.64047077377E+02  0.00000000000E+00 0. -1.
         -5    1    5    5    0  502  0.44876468928E+02  0.32412626261E+01 -0.43790678410E+03  0.44023725968E+03  0.47000000000E+01 0.  1.
         11    1    6    6    0    0 -0.98488427513E+02  0.37011683889E+02 -0.52788993402E+03  0.53827280959E+03  0.00000000000E+00 0. -1.
        -12    1    6    6    0    0  0.98903909632E+01 -0.14069850677E+02 -0.52080354596E+02  0.54846548354E+02  0.00000000000E+00 0.  1.
</event>
<event>
12    1  0.8297444E-002  0.1887928E+03  0.7818608E-02  0.1159906E+00
         21   -1    0    0  501  502  0.00000000000E+00  0.00000000000E+00  0.14000259404E+03  0.14000259404E+03  0.00000000000E+00 0.  1.
         21   -1    0    0  502  503 -0.00000000000E+00 -0.00000000000E+00 -0.33891386398E+03  0.33891386398E+03  0.00000000000E+00 0. -1.
         -6    2    1    2    0  503  0.26577152979E+02 -0.70737096496E+02 -0.22005564763E+03  0.28894330271E+03  0.17132910507E+03 0.  0.
        -24    2    3    3    0    0  0.18854598649E+02  0.18171799683E+01 -0.30246042676E+02  0.85538442856E+02  0.77738047798E+02 0.  0.
          6    2    1    2  501    0 -0.26577152979E+02  0.70737096496E+02  0.21144377688E+02  0.18997315531E+03  0.17301050011E+03 0.  0.
         24    2    5    5    0    0 -0.13788563165E+01  0.93229792088E+02 -0.32546836124E+02  0.12636724403E+03  0.78839637518E+02 0.  0.
          5    1    5    5  501    0 -0.25198296663E+02 -0.22492695592E+02  0.53691213811E+02  0.63605911284E+02  0.47000000000E+01 0. -1.
        -13    1    6    6    0    0 -0.30755062182E+02  0.62896657933E+02  0.45488477438E+01  0.70160925341E+02  0.00000000000E+00 0.  1.
         14    1    6    6    0    0  0.29376205865E+02  0.30333134154E+02 -0.37095683867E+02  0.56206318686E+02  0.00000000000E+00 0. -1.
         -5    1    3    3    0  503  0.77225543299E+01 -0.72554276464E+02 -0.18980960495E+03  0.20340485985E+03  0.47000000000E+01 0.  1.
         13    1    4    4    0    0 -0.64377068268E+01  0.91150272714E+01 -0.50881136499E+02  0.52090477467E+02  0.00000000000E+00 0. -1.
        -14    1    4    4    0    0  0.25292305476E+02 -0.72978473032E+01  0.20635093823E+02  0.33447965389E+02  0.00000000000E+00 0.  1.
</event>
<event>
12    1  0.8297444E-002  0.3531582E+03  0.7818608E-02  0.1061327E+00
         21   -1    0    0  501  502  0.00000000000E+00  0.00000000000E+00  0.11319152219E+03  0.11319152219E+03  0.00000000000E+00 0. -1.
         21   -1    0    0  502  503 -0.00000000000E+00 -0.00000000000E+00 -0.15960420372E+04  0.15960420372E+04  0.00000000000E+00 0.  1.
         -6    2    1    2    0  503  0.14112672427E+03  0.27427881935E+03 -0.12169910732E+04  0.12671968960E+04  0.17197406154E+03 0.  0.
        -24    2    3    3    0    0  0.87812298339E+02  0.25545159047E+03 -0.11156287965E+04  0.11510362585E+04  0.85383499506E+02 0.  0.
          6    2    1    2  501    0 -0.14112672427E+03 -0.27427881935E+03 -0.26585944180E+03  0.44203666342E+03  0.17195797731E+03 0.  0.
         24    2    5    5    0    0 -0.84552842789E+02 -0.27074017270E+03 -0.20917926989E+03  0.36173810818E+03  0.81541815159E+02 0.  0.
          5    1    5    5  501    0 -0.56573881479E+02 -0.35386466540E+01 -0.56680171911E+02  0.80298555240E+02  0.47000000000E+01 0. -1.
        -13    1    6    6    0    0 -0.48668225015E+02 -0.93828027379E+02 -0.36207973810E+02  0.11172874391E+03  0.00000000000E+00 0.  1.
         14    1    6    6    0    0 -0.35884617774E+02 -0.17691214532E+03 -0.17297129608E+03  0.25000936427E+03  0.00000000000E+00 0. -1.
         -5    1    3    3    0  503  0.53314425929E+02  0.18827228877E+02 -0.10136227676E+03  0.11616063752E+03  0.47000000000E+01 0.  1.
         13    1    4    4    0    0 -0.14820769176E+02  0.14900761833E+02 -0.10759783301E+03  0.10963111589E+03  0.00000000000E+00 0. -1.
        -14    1    4    4    0    0  0.10263306752E+03  0.24055082864E+03 -0.10080309635E+04  0.10414051426E+04  0.00000000000E+00 0.  1.
</event>
<event>
12    1  0.8297444E-002  0.1968088E+03  0.7818608E-02  0.1152574E+00
         21   -1    0    0  503  502  0.00000000000E+00  0.00000000000E+00  0.35417859173E+03  0.35417859173E+03  0.00000000000E+00 0.  1.
         21   -1    0    0  501  503 -0.00000000000E+00 -0.00000000000E+00 -0.18383646763E+03  0.18383646763E+03  0.00000000000E+00 0. -1.
          6    2    1    2  501    0  0.23227111679E+02  0.92510625413E+02 -0.86316918253E+02  0.21490532776E+03  0.17215102379E+03 0.  0.
         24    2    3    3    0    0  0.29641048858E+02  0.11799433888E+03 -0.24105094592E+02  0.14720777060E+03  0.79295752433E+02 0.  0.
         -6    2    1    2    0  502 -0.23227111679E+02 -0.92510625413E+02  0.25665904236E+03  0.32310973160E+03  0.17154684521E+03 0.  0.
        -24    2    5    5    0    0  0.80605146714E+01 -0.40704616383E+01  0.15230081376E+03  0.18270564332E+03  0.10052001629E+03 0.  0.
          5    1    3    3  501    0 -0.64139371796E+01 -0.25483713471E+02 -0.62211823661E+02  0.67697557162E+02  0.47000000000E+01 0. -1.
        -11    1    4    4    0    0  0.41502701009E+02  0.12481322392E+03 -0.21434110191E+02  0.13326753594E+03  0.00000000000E+00 0.  1.
         12    1    4    4    0    0 -0.11861652150E+02 -0.68188850313E+01 -0.26709844009E+01  0.13940234664E+02  0.00000000000E+00 0. -1.
         -5    1    5    5    0  502 -0.31287626350E+02 -0.88440163774E+02  0.10435822859E+03  0.14040408828E+03  0.47000000000E+01 0.  1.
         13    1    6    6    0    0  0.98650806243E+01 -0.26912730593E+02 -0.27292547304E-01  0.28663838344E+02  0.00000000000E+00 0. -1.
        -14    1    6    6    0    0 -0.18045659528E+01  0.22842268955E+02  0.15232810631E+03  0.15404180498E+03  0.00000000000E+00 0.  1.
</event>
<event>
12    1  0.8297444E-002  0.3080793E+03  0.7818608E-02  0.1081913E+00
         21   -1    0    0  501  502  0.00000000000E+00  0.00000000000E+00  0.27157863260E+03  0.27157863260E+03  0.00000000000E+00 0. -1.
         21   -1    0    0  502  503 -0.00000000000E+00 -0.00000000000E+00 -0.59597807579E+03  0.59597807579E+03  0.00000000000E+00 0. -1.
         -6    2    1    2    0  503  0.10870613479E+03 -0.22386809088E+03 -0.44531932548E+03  0.54149990294E+03  0.18160092889E+03 0.  0.
        -24    2    3    3    0    0  0.14818738581E+03 -0.18420939968E+03 -0.35631805453E+03  0.43626256546E+03  0.86428385323E+02 0.  0.
          6    2    1    2  501    0 -0.10870613479E+03  0.22386809088E+03  0.12091988230E+03  0.32605680545E+03  0.17250355530E+03 0.  0.
         24    2    5    5    0    0 -0.59014121342E+02  0.39676572739E+02  0.73322394958E+02  0.12937578868E+03  0.79404182213E+02 0.  0.
          5    1    5    5  501    0 -0.49692013453E+02  0.18419151814E+03  0.47597487339E+02  0.19668101677E+03  0.47000000000E+01 0. -1.
        -13    1    6    6    0    0 -0.42081815544E+01  0.10808521950E+02 -0.16558683228E+02  0.20216897116E+02  0.00000000000E+00 0.  1.
         14    1    6    6    0    0 -0.54805939787E+02  0.28868050789E+02  0.89881078186E+02  0.10915889157E+03  0.00000000000E+00 0. -1.
         -5    1    3    3    0  503 -0.39481251010E+02 -0.39658691201E+02 -0.89001270950E+02  0.10523733748E+03  0.47000000000E+01 0.  1.
         13    1    4    4    0    0  0.46074389033E+02 -0.12299186798E+03 -0.16449734719E+03  0.21049756803E+03  0.00000000000E+00 0. -1.
        -14    1    4    4    0    0  0.10211299677E+03 -0.61217531699E+02 -0.19182070734E+03  0.22576499742E+03  0.00000000000E+00 0.  1.
</event>
<event>
12    1  0.8297444E-002  0.2432737E+03  0.7818608E-02  0.1117723E+00
         21   -1    0    0  503  502  0.00000000000E+00  0.00000000000E+00  0.96984408085E+03  0.96984408085E+03  0.00000000000E+00 0.  1.
         21   -1    0    0  501  503 -0.00000000000E+00 -0.00000000000E+00 -0.36972229839E+03  0.36972229839E+03  0.00000000000E+00 0.  1.
          6    2    1    2  501    0 -0.14762066413E+03 -0.88711768287E+02 -0.31215538034E+03  0.39540976297E+03  0.17101538196E+03 0.  0.
         24    2    3    3    0    0 -0.37165107736E+02 -0.87581309702E+02 -0.88593673576E+02  0.14600319809E+03  0.66455728213E+02 0.  0.
         -6    2    1    2    0  502  0.14762066413E+03  0.88711768287E+02  0.91227716280E+03  0.94415661627E+03  0.17181517965E+03 0.  0.
        -24    2    5    5    0    0  0.62102588676E+02  0.52683644343E+02  0.73967563476E+03  0.74813431033E+03  0.77153118692E+02 0.  0.
          5    1    3    3  501    0 -0.11045555640E+03 -0.11304585850E+01 -0.22356170676E+03  0.24940656488E+03  0.47000000000E+01 0. -1.
        -11    1    4    4    0    0 -0.52408821811E+02 -0.42447834166E+02 -0.42506007239E+02  0.79719908934E+02  0.00000000000E+00 0.  1.
         12    1    4    4    0    0  0.15243714075E+02 -0.45133475536E+02 -0.46087666337E+02  0.66283289155E+02  0.00000000000E+00 0. -1.
         -5    1    5    5    0  502  0.85518075458E+02  0.36028123944E+02  0.17260152804E+03  0.19602230594E+03  0.47000000000E+01 0.  1.
         11    1    6    6    0    0 -0.11902870809E+02 -0.97195499696E+01  0.10508665978E+03  0.10620430335E+03  0.00000000000E+00 0. -1.
        -12    1    6    6    0    0  0.74005459485E+02  0.62403194312E+02  0.63458897498E+03  0.64193000698E+03  0.00000000000E+00 0.  1.
</event>
<event>
12    1  0.8297444E-002  0.2339501E+03  0.7818608E-02  0.1124146E+00
         21   -1    0    0  501  502  0.00000000000E+00  0.00000000000E+00  0.33393480836E+03  0.33393480836E+03  0.00000000000E+00 0. -1.
         21   -1    0    0  502  503 -0.00000000000E+00 -0.00000000000E+00 -0.18330579501E+03  0.18330579501E+03  0.00000000000E+00 0. -1.
         -6    2    1    2    0  503  0.76402667185E+02  0.13648420803E+03  0.16188733064E+03  0.28449987360E+03  0.17397518116E+03 0.  0.
        -24    2    3    3    0    0  0.67851613654E+02  0.13797367358E+03  0.60694649007E+02  0.18282692813E+03  0.78110621263E+02 0.  0.
          6    2    1    2  501    0 -0.76402667185E+02 -0.13648420803E+03 -0.11258317288E+02  0.23274072978E+03  0.17197729790E+03 0.  0.
         24    2    5    5    0    0 -0.54431414077E+02 -0.69603153922E+02  0.60401662537E+02  0.13217704811E+03  0.77556645980E+02 0.  0.
          5    1    5    5  501    0 -0.21971253108E+02 -0.66881054112E+02 -0.71659979824E+02  0.10056368167E+03  0.47000000000E+01 0. -1.
        -11    1    6    6    0    0 -0.15383693909E+02  0.14561755074E+02 -0.50777260021E+00  0.21188689958E+02  0.00000000000E+00 0.  1.
         12    1    6    6    0    0 -0.39047720168E+02 -0.84164908996E+02  0.60909435137E+02  0.11098835815E+03  0.00000000000E+00 0. -1.
         -5    1    3    3    0  503  0.85510535309E+01 -0.14894655446E+01  0.10119268163E+03  0.10167294547E+03  0.47000000000E+01 0.  1.
         13    1    4    4    0    0  0.32364818589E+02  0.11991254494E+02  0.35549637093E+02  0.49548444618E+02  0.00000000000E+00 0. -1.
        -14    1    4    4    0    0  0.35486795064E+02  0.12598241908E+03  0.25145011915E+02  0.13327848351E+03  0.00000000000E+00 0.  1.
</event>
<event>
12    1  0.8297444E-002  0.1980153E+03  0.7818608E-02  0.1151623E+00
         21   -1    0    0  501  502  0.00000000000E+00  0.00000000000E+00  0.12104287208E+03  0.12104287208E+03  0.00000000000E+00 0.  1.
         21   -1    0    0  502  503 -0.00000000000E+00 -0.00000000000E+00 -0.32432548762E+03  0.32432548762E+03  0.00000000000E+00 0.  1.
         -6    2    1    2    0  503  0.95002105268E+02 -0.10230639659E+02 -0.11846181856E+03  0.22995102812E+03  0.17237809281E+03 0.  0.
        -24    2    3    3    0    0  0.70781419184E+02  0.16736530555E+02 -0.14835304805E+03  0.18273402373E+03  0.78057516015E+02 0.  0.
          6    2    1    2  501    0 -0.95002105268E+02  0.10230639659E+02 -0.84820796982E+02  0.21541733158E+03  0.17343584737E+03 0.  0.
         24    2    5    5    0    0 -0.74549162495E+02 -0.20281152675E+02 -0.12071521752E+03  0.16384416254E+03  0.79396744746E+02 0.  0.
          5    1    5    5  501    0 -0.20452942774E+02  0.30511792334E+02  0.35894420534E+02  0.51573169042E+02  0.47000000000E+01 0. -1.
        -11    1    6    6    0    0  0.56260037713E+01  0.89535315660E+01  0.51610776509E+01  0.11766663438E+02  0.00000000000E+00 0.  1.
         12    1    6    6    0    0 -0.80175166266E+02 -0.29234684241E+02 -0.12587629517E+03  0.15207749910E+03  0.00000000000E+00 0. -1.
         -5    1    3    3    0  503  0.24220686085E+02 -0.26967170214E+02  0.29891229482E+02  0.47217004392E+02  0.47000000000E+01 0.  1.
         11    1    4    4    0    0 -0.92281150294E+01  0.18858977447E+02 -0.10851065091E+02  0.23633974506E+02  0.00000000000E+00 0. -1.
        -12    1    4    4    0    0  0.80009534213E+02 -0.21224468923E+01 -0.13750198296E+03  0.15910004922E+03  0.00000000000E+00 0.  1.
</event>
<event>
12    1  0.8297444E-002  0.1853527E+03  0.7818608E-02  0.1163138E+00
         21   -1    0    0  501  502  0.00000000000E+00  0.00000000000E+00  0.22900880699E+02  0.22900880699E+02  0.00000000000E+00 0. -1.
         21   -1    0    0  502  503 -0.00000000000E+00 -0.00000000000E+00 -0.27192264428E+04  0.27192264428E+04  0.00000000000E+00 0. -1.
         -6    2    1    2    0  503 -0.62589745293E+02  0.20619652970E+02 -0.22680006032E+04  0.22754176621E+04  0.17133637831E+03 0.  0.
        -24    2    3    3    0    0 -0.13144304101E+02 -0.17276234524E+02 -0.19288971193E+04  0.19306072610E+04  0.78288301600E+02 0.  0.
          6    2    1    2  501    0  0.62589745293E+02 -0.20619652970E+02 -0.42832495890E+03  0.46670966141E+03  0.17324257944E+03 0.  0.
         24    2    5    5    0    0  0.10738779156E+03  0.69761372983E+00 -0.33185525386E+03  0.35812888594E+03  0.81214315212E+02 0.  0.
          5    1    5    5  501    0 -0.44798046265E+02 -0.21317266700E+02 -0.96469705046E+02  0.10858077546E+03  0.47000000000E+01 0. -1.
        -11    1    6    6    0    0  0.55321810584E+01  0.17540208013E+02 -0.13109841385E+03  0.13238224215E+03  0.00000000000E+00 0.  1.
         12    1    6    6    0    0  0.10185561050E+03 -0.16842594283E+02 -0.20075684001E+03  0.22574664379E+03  0.00000000000E+00 0. -1.
         -5    1    3    3    0  503 -0.49445441192E+02  0.37895887495E+02 -0.33910348391E+03  0.34481040116E+03  0.47000000000E+01 0.  1.
         11    1    4    4    0    0 -0.10574903859E+02 -0.48220441017E+02 -0.10459736914E+04  0.10471380055E+04  0.00000000000E+00 0. -1.
        -12    1    4    4    0    0 -0.25694002429E+01  0.30944206492E+02 -0.88292342791E+03  0.88346925543E+03  0.00000000000E+00 0.  1.
</event>
<event>
12    1  0.8297444E-002  0.1900316E+03  0.7818608E-02  0.1158517E+00
         21   -1    0    0  501  502  0.00000000000E+00  0.00000000000E+00  0.88548017973E+02  0.88548017973E+02  0.00000000000E+00 0.  1.
         21   -1    0    0  502  503 -0.00000000000E+00 -0.00000000000E+00 -0.40708211451E+03  0.40708211451E+03  0.00000000000E+00 0. -1.
         -6    2    1    2    0  503 -0.24390609683E+02  0.75266157217E+02 -0.15612545940E+03  0.24565299795E+03  0.17236687636E+03 0.  0.
        -24    2    3    3    0    0 -0.30340336791E+02  0.33921733174E+02 -0.17637957936E+03  0.19899380778E+03  0.80109671711E+02 0.  0.
          6    2    1    2  501    0  0.24390609683E+02 -0.75266157217E+02 -0.16240863714E+03  0.24997713453E+03  0.17277762040E+03 0.  0.
         24    2    5    5    0    0  0.34281675340E+02 -0.68857945086E+02 -0.24516449614E+02  0.11150243019E+03  0.76909594796E+02 0.  0.
          5    1    5    5  501    0 -0.98910656566E+01 -0.64082121305E+01 -0.13789218752E+03  0.13847470434E+03  0.47000000000E+01 0. -1.
        -13    1    6    6    0    0  0.69510697237E+01 -0.69383490797E+02 -0.39692722088E+02  0.80236515080E+02  0.00000000000E+00 0.  1.
         14    1    6    6    0    0  0.27330605616E+02  0.52554571122E+00  0.15176272474E+02  0.31265915113E+02  0.00000000000E+00 0. -1.
         -5    1    3    3    0  503  0.59497271074E+01  0.41344424043E+02  0.20254119958E+02  0.46659190170E+02  0.47000000000E+01 0.  1.
         11    1    4    4    0    0 -0.46735842377E+02  0.32224102070E+02 -0.64572035070E+02  0.85977784514E+02  0.00000000000E+00 0. -1.
        -12    1    4    4    0    0  0.16395505586E+02  0.16976311036E+01 -0.11180754429E+03  0.11301602326E+03  0.00000000000E+00 0.  1.
</event>
<event>
12    1  0.8297444E-002  0.2082922E+03  0.7818608E-02  0.1143249E+00
         21   -1    0    0  503  502  0.00000000000E+00  0.00000000000E+00  0.12723643419E+03  0.12723643419E+03  0.00000000000E+00 0. -1.
         21   -1    0    0  501  503 -0.00000000000E+00 -0.00000000000E+00 -0.61390280021E+03  0.61390280021E+03  0.00000000000E+00 0.  1.
          6    2    1    2  501    0  0.91472873103E+02  0.70440825048E+02  0.44129973666E+01  0.20833890110E+03  0.17336789442E+03 0.  0.
         24    2    3    3    0    0  0.78859906275E+02  0.11033901211E+03 -0.16117222432E+02  0.16149306683E+03  0.86178090969E+02 0.  0.
         -6    2    1    2    0  502 -0.91472873103E+02 -0.70440825048E+02 -0.49107936339E+03  0.53280033330E+03  0.17142945392E+03 0.  0.
        -24    2    5    5    0    0 -0.78107946163E+02 -0.70697824088E+02 -0.19324654857E+03  0.23463064520E+03  0.81291312862E+02 0.  0.
          5    1    3    3  501    0  0.12612966829E+02 -0.39898187065E+02  0.20530219799E+02  0.46845834268E+02  0.47000000000E+01 0. -1.
        -13    1    4    4    0    0 -0.25434429533E+01 -0.11707661792E+02  0.55400853997E+01  0.13199658819E+02  0.00000000000E+00 0.  1.
         14    1    4    4    0    0  0.81403349228E+02  0.12204667391E+03 -0.21657307832E+02  0.14829340801E+03  0.00000000000E+00 0. -1.
         -5    1    5    5    0  502 -0.13364926940E+02  0.25699904032E+00 -0.29783281482E+03  0.29816968811E+03  0.47000000000E+01 0.  1.
         13    1    6    6    0    0 -0.71023253113E+02 -0.88695392233E+02 -0.16823763546E+03  0.20301496761E+03  0.00000000000E+00 0. -1.
        -14    1    6    6    0    0 -0.70846930503E+01  0.17997568144E+02 -0.25008913106E+02  0.31615677590E+02  0.00000000000E+00 0.  1.
</event>
<event>
12    1  0.8297444E-002  0.1833881E+03  0.7818608E-02  0.1165112E+00
         21   -1    0    0  503  502  0.00000000000E+00  0.00000000000E+00  0.14558880732E+03  0.14558880732E+03  0.00000000000E+00 0.  1.
         21   -1    0    0  501  503 -0.00000000000E+00 -0.00000000000E+00 -0.25039671460E+03  0.25039671460E+03  0.00000000000E+00 0. -1.
          6    2    1    2  501    0  0.42410344942E+02 -0.47589018763E+02 -0.11117815208E+03  0.21248679837E+03  0.16948954515E+03 0.  0.
         24    2    3    3    0    0  0.84230273757E+02 -0.24592907560E+02 -0.35002641516E+02  0.12247276620E+03  0.77941281927E+02 0.  0.
         -6    2    1    2    0  502 -0.42410344942E+02  0.47589018763E+02  0.63702447941E+01  0.18349872356E+03  0.17195304435E+03 0.  0.
        -24    2    5    5    0    0 -0.17342540094E+02  0.65631347646E+02 -0.52018682287E+02  0.11727729744E+03  0.80248262888E+02 0.  0.
          5    1    3    3  501    0 -0.41819928814E+02 -0.22996111203E+02 -0.76175510567E+02  0.90014032165E+02  0.47000000000E+01 0. -1.
        -11    1    4    4    0    0  0.39495359391E+02 -0.16129820941E+02  0.23212707092E+02  0.48568346766E+02  0.00000000000E+00 0.  1.
         12    1    4    4    0    0  0.44734914366E+02 -0.84630866184E+01 -0.58215348608E+02  0.73904419435E+02  0.00000000000E+00 0. -1.
         -5    1    5    5    0  502 -0.25067804848E+02 -0.18042328883E+02  0.58388927081E+02  0.66221426118E+02  0.47000000000E+01 0.  1.
         13    1    6    6    0    0 -0.46609181297E+02  0.20013261124E+02 -0.21663974336E+02  0.55156814502E+02  0.00000000000E+00 0. -1.
        -14    1    6    6    0    0  0.29266641203E+02  0.45618086522E+02 -0.30354707951E+02  0.62120482935E+02  0.00000000000E+00 0.  1.
</event>
<event>
12    1  0.8297444E-002  0.1765598E+03  0.7818608E-02  0.1172299E+00
         21   -1    0    0  503  502  0.00000000000E+00  0.00000000000E+00  0.24876193636E+03  0.24876193636E+03  0.00000000000E+00 0. -1.
         21   -1    0    0  501  503 -0.00000000000E+00 -0.00000000000E+00 -0.22218554276E+03  0.22218554276E+03  0.00000000000E+00 0. -1.
          6    2    1    2  501    0 -0.47245435654E+01 -0.37765466382E+02 -0.14479039171E+03  0.22489884175E+03  0.16782931724E+03 0.  0.
         24    2    3    3    0    0 -0.21884758298E+01 -0.84032460100E+02 -0.65413342099E+02  0.13286693233E+03  0.79425893790E+02 0.  0.
         -6    2    1    2    0  502  0.47245435654E+01  0.37765466382E+02  0.17136678531E+03  0.24604863736E+03  0.17240883120E+03 0.  0.
        -24    2    5    5    0    0  0.27976118583E+02  0.15327348726E+02  0.19000500262E+03  0.20845105753E+03  0.79576073888E+02 0.  0.
          5    1    3    3  501    0 -0.25360677356E+01  0.46266993718E+02 -0.79377049611E+02  0.92031909424E+02  0.47000000000E+01 0. -1.
        -11    1    4    4    0    0 -0.27878908666E+02 -0.77008124634E+00 -0.10123301930E+02  0.29669981724E+02  0.00000000000E+00 0.  1.
         12    1    4    4    0    0  0.25690432836E+02 -0.83262378854E+02 -0.55290040169E+02  0.10319695060E+03  0.00000000000E+00 0. -1.
         -5    1    5    5    0  502 -0.23251575018E+02  0.22438117656E+02 -0.18638217308E+02  0.37597579832E+02  0.47000000000E+01 0.  1.
         11    1    6    6    0    0  0.16233028662E+02 -0.23370179130E+02  0.14575095352E+03  0.14850258228E+03  0.00000000000E+00 0. -1.
        -12    1    6    6    0    0  0.11743089921E+02  0.38697527856E+02  0.44254049098E+02  0.59948475249E+02  0.00000000000E+00 0.  1.
</event>
<event>
12    1  0.8297444E-002  0.1883111E+03  0.7818608E-02  0.1160014E+00
         21   -1    0    0  501  502  0.00000000000E+00  0.00000000000E+00  0.11107338667E+03  0.11107338667E+03  0.00000000000E+00 0. -1.
         21   -1    0    0  502  503 -0.00000000000E+00 -0.00000000000E+00 -0.35400272525E+03  0.35400272525E+03  0.00000000000E+00 0. -1.
         -6    2    1    2    0  503  0.41916340061E+02  0.66173491854E+02 -0.48429245551E+02  0.19435232970E+03  0.17114767205E+03 0.  0.
        -24    2    3    3    0    0  0.42328355578E+02  0.22568709533E+02 -0.92968033512E+02  0.13184360686E+03  0.80241168231E+02 0.  0.
          6    2    1    2  501    0 -0.41916340061E+02 -0.66173491854E+02 -0.19450009303E+03  0.27072378221E+03  0.17124593274E+03 0.  0.
         24    2    5    5    0    0  0.82425260931E+01  0.17874134870E+02 -0.51257242976E+02  0.97171140332E+02  0.80171700882E+02 0.  0.
          5    1    5    5  501    0 -0.50158866154E+02 -0.84047626724E+02 -0.14324285006E+03  0.17355264188E+03  0.47000000000E+01 0. -1.
        -13    1    6    6    0    0  0.10419321035E+02 -0.22235722998E+02 -0.51441419263E+02  0.57001835443E+02  0.00000000000E+00 0.  1.
         14    1    6    6    0    0 -0.21767949424E+01  0.40109857868E+02  0.18417628727E+00  0.40169304889E+02  0.00000000000E+00 0. -1.
         -5    1    3    3    0  503 -0.41201551728E+00  0.43604782322E+02  0.44538787961E+02  0.62508722840E+02  0.47000000000E+01 0.  1.
         11    1    4    4    0    0  0.63885717042E+02  0.23444323557E+02 -0.52374150338E+02  0.85872421490E+02  0.00000000000E+00 0. -1.
        -12    1    4    4    0    0 -0.21557361464E+02 -0.87561402405E+00 -0.40593883174E+02  0.45971185370E+02  0.00000000000E+00 0.  1.
</event>
<event>
12    1  0.8297444E-002  0.3892717E+03  0.7818608E-02  0.1047753E+00
         21   -1    0    0  501  502  0.00000000000E+00  0.00000000000E+00  0.43409971375E+03  0.43409971375E+03  0.00000000000E+00 0.  1.
         21   -1    0    0  502  503 -0.00000000000E+00 -0.00000000000E+00 -0.36062486127E+03  0.36062486127E+03  0.00000000000E+00 0. -1.
         -6    2    1    2    0  503 -0.42709308975E+02 -0.34624603108E+03 -0.40008423697E+02  0.39132227819E+03  0.17269062606E+03 0.  0.
        -24    2    3    3    0    0 -0.68996477928E+02 -0.12720133536E+03 -0.45054763997E+02  0.17059813015E+03  0.78314089211E+02 0.  0.
          6    2    1    2  501    0  0.42709308975E+02  0.34624603108E+03  0.11348327618E+03  0.40340229683E+03  0.16776340484E+03 0.  0.
         24    2    5    5    0    0  0.35362981281E+02  0.20796876800E+03  0.22432690844E+01  0.22571999835E+03  0.80267904476E+02 0.  0.
          5    1    5    5  501    0  0.73463276940E+01  0.13827726308E+03  0.11124000709E+03  0.17768229848E+03  0.47000000000E+01 0. -1.
        -13    1    6    6    0    0  0.11473679819E+02  0.30002563542E+02  0.30086921587E+02  0.44011612084E+02  0.00000000000E+00 0.  1.
         14    1    6    6    0    0  0.23889301462E+02  0.17796620446E+03 -0.27843652502E+02  0.18170838626E+03  0.00000000000E+00 0. -1.
         -5    1    3    3    0  503  0.26287168953E+02 -0.21904469573E+03  0.50463403003E+01  0.22072414804E+03  0.47000000000E+01 0.  1.
         13    1    4    4    0    0  0.53207331074E+01 -0.37435740248E+02 -0.38368734785E+02  0.53869329472E+02  0.00000000000E+00 0. -1.
        -14    1    4    4    0    0 -0.74317211036E+02 -0.89765595108E+02 -0.66860292123E+01  0.11672880068E+03  0.00000000000E+00 0.  1.
</event>
<event>
12    1  0.8297444E-002  0.1930730E+03  0.7818608E-02  0.1155870E+00
         21   -1    0    0  503  502  0.00000000000E+00  0.00000000000E+00  0.14401658926E+03  0.14401658926E+03  0.00000000000E+00 0.  1.
         21   -1    0    0  501  503 -0.00000000000E+00 -0.00000000000E+00 -0.38643022617E+03  0.38643022617E+03  0.00000000000E+00 0. -1.
          6    2    1    2  501    0 -0.63981469434E+02 -0.58909320448E+02 -0.27429549730E+03  0.33543283533E+03  0.17237526130E+03 0.  0.
         24    2    3    3    0    0  0.16149196860E+02 -0.44237030373E+02 -0.15001605062E+03  0.18675980265E+03  0.10078043971E+03 0.  0.
         -6    2    1    2    0  502  0.63981469434E+02  0.58909320448E+02  0.31881860396E+02  0.19501398011E+03  0.17161020642E+03 0.  0.
        -24    2    5    5    0    0  0.64912298566E+02 -0.23010788002E+02 -0.13475778902E+02  0.10125270850E+03  0.72989118993E+02 0.  0.
          5    1    3    3  501    0 -0.80130666294E+02 -0.14672290075E+02 -0.12427944669E+03  0.14867303268E+03  0.47000000000E+01 0. -1.
        -13    1    4    4    0    0 -0.19258542466E+02  0.71755423223E+00  0.63184723597E+01  0.20281258219E+02  0.00000000000E+00 0.  1.
         14    1    4    4    0    0  0.35407739326E+02 -0.44954584605E+02 -0.15633452298E+03  0.16647854443E+03  0.00000000000E+00 0. -1.
         -5    1    5    5    0  502 -0.93082913157E+00  0.81920108450E+02  0.45357639298E+02  0.93761271610E+02  0.47000000000E+01 0.  1.
         11    1    6    6    0    0  0.71146178849E+02 -0.12886732468E+02  0.11856105905E+02  0.73269460799E+02  0.00000000000E+00 0. -1.
        -12    1    6    6    0    0 -0.62338802832E+01 -0.10124055534E+02 -0.25331884807E+02  0.27983247698E+02  0.00000000000E+00 0.  1.
</event>
<event>
12    1  0.8297444E-002  0.2356653E+03  0.7818608E-02  0.1122874E+00
         21   -1    0    0  503  502  0.00000000000E+00  0.00000000000E+00  0.38995118732E+03  0.38995118732E+03  0.00000000000E+00 0. -1.
         21   -1    0    0  501  503 -0.00000000000E+00 -0.00000000000E+00 -0.14466892850E+03  0.14466892850E+03  0.00000000000E+00 0.  1.
          6    2    1    2  501    0 -0.15370696176E+03  0.45376466413E+02  0.85636184410E+02  0.25074225901E+03  0.17278099020E+03 0.  0.
         24    2    3    3    0    0 -0.88351921796E+02  0.40329901142E+02  0.12242536714E+03  0.17542769842E+03  0.79714138287E+02 0.  0.
         -6    2    1    2    0  502  0.15370696176E+03 -0.45376466413E+02  0.15964607442E+03  0.28387785681E+03  0.17150776867E+03 0.  0.
        -24    2    5    5    0    0  0.56640140250E+02 -0.37157367776E+02  0.15368566183E+03  0.18616840006E+03  0.80315721141E+02 0.  0.
          5    1    3    3  501    0 -0.65355039963E+02  0.50465652710E+01 -0.36789182734E+02  0.75314560583E+02  0.47000000000E+01 0. -1.
        -11    1    4    4    0    0 -0.75355890254E+02  0.46719998795E+02  0.50454701024E+02  0.10201443691E+03  0.00000000000E+00 0.  1.
         12    1    4    4    0    0 -0.12996031543E+02 -0.63900976534E+01  0.71970666119E+02  0.73413261510E+02  0.00000000000E+00 0. -1.
         -5    1    5    5    0  502  0.97066821509E+02 -0.82190986363E+01  0.59604125855E+01  0.97709456750E+02  0.47000000000E+01 0.  1.
         11    1    6    6    0    0 -0.89607489178E+01  0.17172829278E+02  0.21737236041E+02  0.29115434348E+02  0.00000000000E+00 0. -1.
        -12    1    6    6    0    0  0.65600889168E+02 -0.54330197055E+02  0.13194842579E+03  0.15705296572E+03  0.00000000000E+00 0.  1.
</event>
<event>
12    1  0.8297444E-002  0.1898276E+03  0.7818608E-02  0.1158821E+00
         21   -1    0    0  501  502  0.00000000000E+00  0.00000000000E+00  0.19434642295E+03  0.19434642295E+03  0.00000000000E+00 0.  1.
         21   -1    0    0  502  503 -0.00000000000E+00 -0.00000000000E+00 -0.19986910016E+03  0.19986910016E+03  0.00000000000E+00 0.  1.
         -6    2    1    2    0  503 -0.77077123841E+02 -0.20944385130E+02 -0.57367079619E+02  0.19830656276E+03  0.17220615762E+03 0.  0.
        -24    2    3    3    0    0 -0.39804707071E+02 -0.63347285532E+02  0.14944705022E+02  0.10644621651E+03  0.74230448688E+02 0.  0.
          6    2    1    2  501    0  0.77077123841E+02  0.20944385130E+02  0.51844402409E+02  0.19590896035E+03  0.17121018777E+03 0.  0.
         24    2    5    5    0    0  0.45823477464E+02 -0.52560174810E+02  0.11785773111E+02  0.10642994312E+03  0.79536565684E+02 0.  0.
          5    1    5    5  501    0  0.31253646377E+02  0.73504559941E+02  0.40058629298E+02  0.89479017234E+02  0.47000000000E+01 0. -1.
        -13    1    6    6    0    0  0.34117632924E+02 -0.24105288629E+01  0.35883774834E+02  0.49572863767E+02  0.00000000000E+00 0.  1.
         14    1    6    6    0    0  0.11705844540E+02 -0.50149645948E+02 -0.24098001723E+02  0.56857079349E+02  0.00000000000E+00 0. -1.
         -5    1    3    3    0  503 -0.37272416770E+02  0.42402900402E+02 -0.72311784641E+02  0.91860346246E+02  0.47000000000E+01 0.  1.
         11    1    4    4    0    0 -0.10709655973E+01  0.15409843027E+02  0.10281312414E+02  0.18555743434E+02  0.00000000000E+00 0. -1.
        -12    1    4    4    0    0 -0.38733741473E+02 -0.78757128559E+02  0.46633926083E+01  0.87890473079E+02  0.00000000000E+00 0.  1.
</event>
<event>
12    1  0.8297444E-002  0.1928027E+03  0.7818608E-02  0.1156966E+00
         21   -1    0    0  501  502  0.00000000000E+00  0.00000000000E+00  0.25195562050E+02  0.25195562050E+02  0.00000000000E+00 0. -1.
         21   -1    0    0  502  503 -0.00000000000E+00 -0.00000000000E+00 -0.14707095022E+04  0.14707095022E+04  0.00000000000E+00 0. -1.
         -6    2    1    2    0  503 -0.79028074329E+02 -0.18867130779E+01 -0.82047231004E+03  0.84180269484E+03  0.17090339170E+03 0.  0.
        -24    2    3    3    0    0  0.16390746989E+01 -0.74233501356E+01 -0.19446910418E+03  0.21058169787E+03  0.80427770722E+02 0.  0.
          6    2    1    2  501    0  0.79028074329E+02  0.18867130779E+01 -0.62504163015E+03  0.65410236944E+03  0.17585185262E+03 0.  0.
         24    2    5    5    0    0  0.14765251833E+02 -0.41029390076E+02 -0.49099820122E+03  0.49930820577E+03  0.79548898457E+02 0.  0.
          5    1    5    5  501    0  0.64262822496E+02  0.42916103154E+02 -0.13404342894E+03  0.15479416367E+03  0.47000000000E+01 0. -1.
        -11    1    6    6    0    0  0.30803980845E+02 -0.58476243957E+02 -0.32763915255E+03  0.33423909201E+03  0.00000000000E+00 0.  1.
         12    1    6    6    0    0 -0.16038729012E+02  0.17446853881E+02 -0.16335904866E+03  0.16506911376E+03  0.00000000000E+00 0. -1.
         -5    1    3    3    0  503 -0.80667149028E+02  0.55366370577E+01 -0.62600320585E+03  0.63122099697E+03  0.47000000000E+01 0.  1.
         13    1    4    4    0    0 -0.32589810422E+02 -0.20734169229E+02 -0.13732088547E+03  0.14265001613E+03  0.00000000000E+00 0. -1.
        -14    1    4    4    0    0  0.34228885120E+02  0.13310819093E+02 -0.57148218719E+02  0.67931681741E+02  0.00000000000E+00 0.  1.
</event>
<event>
12    1  0.8297444E-002  0.1924837E+03  0.7818608E-02  0.1156587E+00
         21   -1    0    0  503  502  0.00000000000E+00  0.00000000000E+00  0.73837256183E+03  0.73837256183E+03  0.00000000000E+00 0. -1.
         21   -1    0    0  501  503 -0.00000000000E+00 -0.00000000000E+00 -0.50202064474E+02  0.50202064474E+02  0.00000000000E+00 0. -1.
          6    2    1    2  501    0 -0.14124457500E+02 -0.81323189547E+02  0.30623356960E+03  0.36087638153E+03  0.17216213910E+03 0.  0.
         24    2    3    3    0    0 -0.37068186110E+02 -0.10909382376E+03  0.28632974878E+03  0.31945326129E+03  0.82402356203E+02 0.  0.
         -6    2    1    2    0  502  0.14124457500E+02  0.81323189547E+02  0.38193692776E+03  0.42769824477E+03  0.17388792465E+03 0.  0.
        -24    2    5    5    0    0  0.27145676053E+02  0.68194952914E+02  0.11760720255E+03  0.16268089372E+03  0.85124495650E+02 0.  0.
          5    1    3    3  501    0  0.22943728610E+02  0.27770634214E+02  0.19903820818E+02  0.41423120240E+02  0.47000000000E+01 0. -1.
        -11    1    4    4    0    0 -0.14229235820E+01 -0.47640100957E+02  0.20932587928E+03  0.21468331949E+03  0.00000000000E+00 0.  1.
         12    1    4    4    0    0 -0.35645262528E+02 -0.61453722805E+02  0.77003869510E+02  0.10476994181E+03  0.00000000000E+00 0. -1.
         -5    1    5    5    0  502 -0.13021218554E+02  0.13128236634E+02  0.26432972521E+03  0.26501735105E+03  0.47000000000E+01 0.  1.
         11    1    6    6    0    0  0.28931966984E+02  0.39030057648E+00  0.80115973942E+02  0.85180868326E+02  0.00000000000E+00 0. -1.
        -12    1    6    6    0    0 -0.17862909309E+01  0.67804652337E+02  0.37491228605E+02  0.77500025394E+02  0.00000000000E+00 0.  1.
</event>
<event>
12    1  0.8297444E-002  0.2495038E+03  0.7818608E-02  0.1113643E+00
         21   -1    0    0  503  502  0.00000000000E+00  0.00000000000E+00  0.14303842732E+03  0.14303842732E+03  0.00000000000E+00 0.  1.
         21   -1    0    0  501  503 -0.00000000000E+00 -0.00000000000E+00 -0.43500080340E+03  0.43500080340E+03  0.00000000000E+00 0. -1.
          6    2    1    2  501    0 -0.95735747588E+02 -0.15224990484E+03 -0.14927183735E+03  0.29061489962E+03  0.17271239551E+03 0.  0.
         24    2    3    3    0    0 -0.98323995320E+02 -0.35665009278E+02 -0.87740322251E+02  0.15867948265E+03  0.80877766554E+02 0.  0.
         -6    2    1    2    0  502  0.95735747588E+02  0.15224990484E+03 -0.14269053873E+03  0.28742433110E+03  0.17293579553E+03 0.  0.
        -24    2    5    5    0    0  0.96769542936E+02  0.17489874646E+03 -0.15121302461E+03  0.26275123796E+03  0.78860118474E+02 0.  0.
          5    1    3    3  501    0  0.25882477326E+01 -0.11658489556E+03 -0.61531515102E+02  0.13193541697E+03  0.47000000000E+01 0. -1.
        -11    1    4    4    0    0 -0.35487194095E+02 -0.46007535428E+02 -0.73022887169E+02  0.93318681471E+02  0.00000000000E+00 0.  1.
         12    1    4    4    0    0 -0.62836801225E+02  0.10342526150E+02 -0.14717435081E+02  0.65360801179E+02  0.00000000000E+00 0. -1.
         -5    1    5    5    0  502 -0.10337953488E+01 -0.22648841619E+02  0.85224858768E+01  0.24673093138E+02  0.47000000000E+01 0.  1.
         13    1    6    6    0    0 -0.67152282776E+01  0.51812466345E+02 -0.52475200929E+02  0.74049123371E+02  0.00000000000E+00 0. -1.
        -14    1    6    6    0    0  0.10348477121E+03  0.12308628012E+03 -0.98737823680E+02  0.18870211459E+03  0.00000000000E+00 0.  1.
</event>
<event>
12    1  0.8297444E-002  0.2022608E+03  0.7818608E-02  0.1149447E+00
         21   -1    0    0  503  502  0.00000000000E+00  0.00000000000E+00  0.42054000043E+02  0.42054000043E+02  0.00000000000E+00 0.  1.
         21   -1    0    0  501  503 -0.00000000000E+00 -0.00000000000E+00 -0.10429683157E+04  0.10429683157E+04  0.00000000000E+00 0.  1.
          6    2    1    2  501    0  0.48516554938E+01  0.93352437889E+02 -0.66495687523E+03  0.69287842498E+03  0.17080588298E+03 0.  0.
         24    2    3    3    0    0 -0.54867678027E+02  0.92293460105E+02 -0.49437187669E+03  0.51207783882E+03  0.79319705444E+02 0.  0.
         -6    2    1    2    0  502 -0.48516554938E+01 -0.93352437889E+02 -0.33595744048E+03  0.39214389081E+03  0.17936335487E+03 0.  0.
        -24    2    5    5    0    0 -0.21050160329E+02 -0.31258081760E+02 -0.56057897093E+02  0.10494370800E+03  0.80315111264E+02 0.  0.
          5    1    3    3  501    0  0.59719333521E+02  0.10589777845E+01 -0.17058499854E+03  0.18080058616E+03  0.47000000000E+01 0. -1.
        -13    1    4    4    0    0 -0.32401165708E+02  0.89400139723E+02 -0.26415352580E+03  0.28074776172E+03  0.00000000000E+00 0.  1.
         14    1    4    4    0    0 -0.22466512319E+02  0.28933203821E+01 -0.23021835090E+03  0.23133007709E+03  0.00000000000E+00 0. -1.
         -5    1    5    5    0  502  0.16198504836E+02 -0.62094356130E+02 -0.27989954338E+03  0.28720018281E+03  0.47000000000E+01 0.  1.
         11    1    6    6    0    0 -0.15834696541E+02 -0.20056228047E+02 -0.76722742311E+02  0.80866365602E+02  0.00000000000E+00 0. -1.
        -12    1    6    6    0    0 -0.52154637884E+01 -0.11201853712E+02  0.20664845217E+02  0.24077342399E+02  0.00000000000E+00 0.  1.
</event>
<event>
12    1  0.8297444E-002  0.2113792E+03  0.7818608E-02  0.1141384E+00
         21   -1    0    0  501  502  0.00000000000E+00  0.00000000000E+00  0.96096180549E+03  0.96096180549E+03  0.00000000000E+00 0. -1.
         21   -1    0    0  502  503 -0.00000000000E+00 -0.00000000000E+00 -0.22262504589E+03  0.22262504589E+03  0.00000000000E+00 0. -1.
         -6    2    1    2    0  503  0.93343364798E+02 -0.64745139389E+02 -0.15951622276E+03  0.26118717492E+03  0.17282476151E+03 0.  0.
        -24    2    3    3    0    0  0.11328818474E+03 -0.11384202695E+02 -0.71905121226E+02  0.15657847299E+03  0.79891544440E+02 0.  0.
          6    2    1    2  501    0 -0.93343364798E+02  0.64745139389E+02  0.89785298236E+03  0.92239967646E+03  0.17825899239E+03 0.  0.
         24    2    5    5    0    0 -0.82418508447E+02  0.10490478101E+03  0.81445764133E+03  0.82907753435E+03  0.78933420246E+02 0.  0.
          5    1    5    5  501    0 -0.10924856351E+02 -0.40159641622E+02  0.83395341035E+02  0.93322142109E+02  0.47000000000E+01 0. -1.
        -13    1    6    6    0    0 -0.35296097514E+02  0.42129122073E+02  0.56243701423E+03  0.56511598137E+03  0.00000000000E+00 0.  1.
         14    1    6    6    0    0 -0.47122410933E+02  0.62775658938E+02  0.25202062710E+03  0.26396155298E+03  0.00000000000E+00 0. -1.
         -5    1    3    3    0  503 -0.19944819938E+02 -0.53360936693E+02 -0.87611101538E+02  0.10460870193E+03  0.47000000000E+01 0.  1.
         11    1    4    4    0    0  0.11886591726E+03 -0.25864290076E+02 -0.71399485996E+02  0.14105301977E+03  0.00000000000E+00 0. -1.
        -12    1    4    4    0    0 -0.55777325195E+01  0.14480087381E+02 -0.50563522995E+00  0.15525453217E+02  0.00000000000E+00 0.  1.
</event>
<event>
12    1  0.8297444E-002  0.2363188E+03  0.7818608E-02  0.1122769E+00
         21   -1    0    0  501  502  0.00000000000E+00  0.00000000000E+00  0.44063698788E+02  0.44063698788E+02  0.00000000000E+00 0.  1.
         21   -1    0    0  502  503 -0.00000000000E+00 -0.00000000000E+00 -0.17024851804E+04  0.17024851804E+04  0.00000000000E+00 0.  1.
         -6    2    1    2    0  503  0.12672904635E+03 -0.10084648421E+03 -0.12822971405E+04  0.13038912961E+04  0.17209384306E+03 0.  0.
        -24    2    3    3    0    0  0.17527451254E+02 -0.19197519328E+02 -0.27009815990E+03  0.28253905115E+03  0.78737177673E+02 0.  0.
          6    2    1    2  501    0 -0.12672904635E+03  0.10084648421E+03 -0.37612434109E+03  0.44265758312E+03  0.16806531873E+03 0.  0.
         24    2    5    5    0    0 -0.11907316631E+03  0.57781173494E+02 -0.36622682115E+03  0.39756562832E+03  0.80120292955E+02 0.  0.
          5    1    5    5  501    0 -0.76558800430E+01  0.43065310720E+02 -0.98975199390E+01  0.45091954799E+02  0.47000000000E+01 0. -1.
        -13    1    6    6    0    0 -0.76042802571E+02  0.59707346899E+02 -0.16043925675E+03  0.18731852605E+03  0.00000000000E+00 0.  1.
         14    1    6    6    0    0 -0.43030363734E+02 -0.19261734057E+01 -0.20578756440E+03  0.21024710226E+03  0.00000000000E+00 0. -1.
         -5    1    3    3    0  503  0.10920159509E+03 -0.81648964885E+02 -0.10121989806E+04  0.10213522449E+04  0.47000000000E+01 0.  1.
         13    1    4    4    0    0  0.13752243177E+02  0.22740280643E+02 -0.36349740233E+02  0.45028304111E+02  0.00000000000E+00 0. -1.
        -14    1    4    4    0    0  0.37752080772E+01 -0.41937799971E+02 -0.23374841967E+03  0.23751074704E+03  0.00000000000E+00 0.  1.
</event>
<event>
12    1  0.8297444E-002  0.3635826E+03  0.7818608E-02  0.1057229E+00
         21   -1    0    0  503  502  0.00000000000E+00  0.00000000000E+00  0.54965237757E+02  0.54965237757E+02  0.00000000000E+00 0.  1.
         21   -1    0    0  501  503 -0.00000000000E+00 -0.00000000000E+00 -0.25494111476E+04  0.25494111476E+04  0.00000000000E+00 0. -1.
          6    2    1    2  501    0 -0.25636441912E+03  0.19044654387E+03 -0.93248417341E+03  0.10006567104E+04  0.17261088279E+03 0.  0.
         24    2    3    3    0    0 -0.16025611726E+03  0.19618398029E+03 -0.64652205426E+03  0.69888502936E+03  0.79242289061E+02 0.  0.
         -6    2    1    2    0  502  0.25636441912E+03 -0.19044654387E+03 -0.15619617365E+04  0.16037196750E+04  0.17378069063E+03 0.  0.
        -24    2    5    5    0    0  0.20314139367E+03 -0.79230091506E+02 -0.83959799563E+03  0.87089414751E+03  0.77382095317E+02 0.  0.
          5    1    3    3  501    0 -0.96108301868E+02 -0.57374364157E+01 -0.28596211915E+03  0.30177168100E+03  0.47000000000E+01 0. -1.
        -11    1    4    4    0    0 -0.98782876794E+02  0.65579709444E+02 -0.24448859007E+03  0.27172306806E+03  0.00000000000E+00 0.  1.
         12    1    4    4    0    0 -0.61473240461E+02  0.13060427085E+03 -0.40203346419E+03  0.42716196130E+03  0.00000000000E+00 0. -1.
         -5    1    5    5    0  502  0.53223025449E+02 -0.11121645237E+03 -0.72236374085E+03  0.73282552753E+03  0.47000000000E+01 0.  1.
         11    1    6    6    0    0  0.41973006899E+02 -0.51883572584E+02 -0.28475357582E+03  0.29246920753E+03  0.00000000000E+00 0. -1.
        -12    1    6    6    0    0  0.16116838678E+03 -0.27346518922E+02 -0.55484441981E+03  0.57842493997E+03  0.00000000000E+00 0.  1.
</event>
<event>
12    1  0.8297444E-002  0.1820324E+03  0.7818608E-02  0.1165937E+00
         21   -1    0    0  503  502  0.00000000000E+00  0.00000000000E+00  0.17192749022E+03  0.17192749022E+03  0.00000000000E+00 0. -1.
         21   -1    0    0  501  503 -0.00000000000E+00 -0.00000000000E+00 -0.19595320087E+03  0.19595320087E+03  0.00000000000E+00 0. -1.
          6    2    1    2  501    0  0.35589832487E+02  0.45614591571E+02 -0.36959972830E+02  0.18538930236E+03  0.17220867196E+03 0.  0.
         24    2    3    3    0    0 -0.25935223208E+02 -0.43037982946E+01 -0.61203514972E+02  0.10240124623E+03  0.77775230641E+02 0.  0.
         -6    2    1    2    0  502 -0.35589832487E+02 -0.45614591571E+02  0.12934262181E+02  0.18249138872E+03  0.17259340856E+03 0.  0.
        -24    2    5    5    0    0 -0.62198158518E+02 -0.18840721737E+02  0.61776642484E+02  0.12058410939E+03  0.80626237438E+02 0.  0.
          5    1    3    3  501    0  0.61525055695E+02  0.49918389866E+02  0.24243542143E+02  0.82988056133E+02  0.47000000000E+01 0. -1.
        -11    1    4    4    0    0 -0.52270578032E+02 -0.93690316499E+01 -0.29044372107E+02  0.60527412244E+02  0.00000000000E+00 0.  1.
         12    1    4    4    0    0  0.26335354824E+02  0.50652333553E+01 -0.32159142865E+02  0.41873833983E+02  0.00000000000E+00 0. -1.
         -5    1    5    5    0  502  0.26608326031E+02 -0.26773869835E+02 -0.48842380303E+02  0.61907279327E+02  0.47000000000E+01 0.  1.
         13    1    6    6    0    0 -0.40015558286E+02  0.29284204859E+02  0.21612181107E+02  0.54091551386E+02  0.00000000000E+00 0. -1.
        -14    1    6    6    0    0 -0.22182600232E+02 -0.48124926596E+02  0.40164461376E+02  0.66492558009E+02  0.00000000000E+00 0.  1.
</event>
<event>
12    1  0.8297444E-002  0.2583836E+03  0.7818608E-02  0.1108393E+00
         21   -1    0    0  503  502  0.00000000000E+00  0.00000000000E+00  0.21762150829E+03  0.21762150829E+03  0.00000000000E+00 0. -1.
         21   -1    0    0  501  503 -0.00000000000E+00 -0.00000000000E+00 -0.52747121143E+03  0.52747121143E+03  0.00000000000E+00 0.  1.
          6    2    1    2  501    0  0.16423899769E+03  0.96091147987E+02 -0.39675110323E+03  0.47248690248E+03  0.17211762843E+03 0.  0.
         24    2    3    3    0    0  0.10304186888E+03  0.62700613199E+02 -0.37090907899E+03  0.39798914006E+03  0.79201118016E+02 0.  0.
         -6    2    1    2    0  502 -0.16423899769E+03 -0.96091147987E+02  0.86901400081E+02  0.27260581725E+03  0.17479737177E+03 0.  0.
        -24    2    5    5    0    0 -0.97003245450E+02  0.17406092780E+02  0.36584562252E+02  0.13133959973E+03  0.78734100421E+02 0.  0.
          5    1    3    3  501    0  0.61197128809E+02  0.33390534789E+02 -0.25842024239E+02  0.74497762414E+02  0.47000000000E+01 0. -1.
        -13    1    4    4    0    0  0.89170205389E+01  0.34536449646E+02 -0.17759069691E+03  0.18113733806E+03  0.00000000000E+00 0.  1.
         14    1    4    4    0    0  0.94124848344E+02  0.28164163553E+02 -0.19331838208E+03  0.21685180200E+03  0.00000000000E+00 0. -1.
         -5    1    5    5    0  502 -0.67235752242E+02 -0.11349724077E+03  0.50316837829E+02  0.14126621751E+03  0.47000000000E+01 0.  1.
         11    1    6    6    0    0 -0.93740194625E+01  0.12591928232E+02  0.40556289944E+02  0.43488407093E+02  0.00000000000E+00 0. -1.
        -12    1    6    6    0    0 -0.87629225987E+02  0.48141645481E+01 -0.39717276911E+01  0.87851192640E+02  0.00000000000E+00 0.  1.
</event>
<event>
12    1  0.8297444E-002  0.1863487E+03  0.7818608E-02  0.1161886E+00
         21   -1    0    0  503  502  0.00000000000E+00  0.00000000000E+00  0.91911551076E+03  0.91911551076E+03  0.00000000000E+00 0. -1.
         21   -1    0    0  501  503 -0.00000000000E+00 -0.00000000000E+00 -0.44498839431E+02  0.44498839431E+02  0.00000000000E+00 0. -1.
          6    2    1    2  501    0 -0.38405885183E+02 -0.59953039902E+02  0.24863624631E+03  0.31048548230E+03  0.17179019975E+03 0.  0.
         24    2    3    3    0    0  0.29170224906E+02  0.12124931105E+02  0.97796540204E+02  0.13010679316E+03  0.79785326809E+02 0.  0.
         -6    2    1    2    0  502  0.38405885183E+02  0.59953039902E+02  0.62598042502E+03  0.65312886789E+03  0.17221047168E+03 0.  0.
        -24    2    5    5    0    0 -0.20342562790E+02  0.52542518286E+02  0.53934002618E+03  0.54808152294E+03  0.79568560757E+02 0.  0.
          5    1    3    3  501    0 -0.67576110089E+02 -0.72077971007E+02  0.15083970611E+03  0.18037868915E+03  0.47000000000E+01 0. -1.
        -13    1    4    4    0    0  0.48274600641E+02 -0.12611750265E+02  0.79587315022E+02  0.93934200504E+02  0.00000000000E+00 0.  1.
         14    1    4    4    0    0 -0.19104375736E+02  0.24736681370E+02  0.18209225182E+02  0.36172592652E+02  0.00000000000E+00 0. -1.
         -5    1    5    5    0  502  0.58748447974E+02  0.74105216166E+01  0.86640398835E+02  0.10504734495E+03  0.47000000000E+01 0.  1.
         13    1    6    6    0    0  0.12554829862E+02  0.34407743716E+02  0.89906720488E+02  0.97081074209E+02  0.00000000000E+00 0. -1.
        -14    1    6    6    0    0 -0.32897392653E+02  0.18134774569E+02  0.44943330569E+03  0.45100044873E+03  0.00000000000E+00 0.  1.
</event>
<event>
12    1  0.8297444E-002  0.2577801E+03  0.7818608E-02  0.1108789E+00
         21   -1    0    0  503  502  0.00000000000E+00  0.00000000000E+00  0.50859571900E+03  0.50859571900E+03  0.00000000000E+00 0.  1.
         21   -1    0    0  501  503 -0.00000000000E+00 -0.00000000000E+00 -0.14160261605E+03  0.14160261605E+03  0.00000000000E+00 0. -1.
          6    2    1    2  501    0 -0.16261232871E+03  0.99215859465E+02  0.89674126778E+02  0.27293224408E+03  0.17367787604E+03 0.  0.
         24    2    3    3    0    0 -0.58541961641E+02  0.10682998861E+03  0.87093472660E+02  0.16844604384E+03  0.77129689257E+02 0.  0.
         -6    2    1    2    0  502  0.16261232871E+03 -0.99215859465E+02  0.27731897617E+03  0.37726609098E+03  0.17069660992E+03 0.  0.
        -24    2    5    5    0    0  0.14893144742E+03 -0.95361504622E+02  0.14064495662E+03  0.23977463603E+03  0.80227673941E+02 0.  0.
          5    1    3    3  501    0 -0.10407036707E+03 -0.76141291445E+01  0.25806541174E+01  0.10448620024E+03  0.47000000000E+01 0. -1.
        -11    1    4    4    0    0 -0.27466328361E+02  0.66117109232E+02  0.92470255172E+02  0.11694707956E+03  0.00000000000E+00 0.  1.
         12    1    4    4    0    0 -0.31075633280E+02  0.40712879377E+02 -0.53767825118E+01  0.51498964272E+02  0.00000000000E+00 0. -1.
         -5    1    5    5    0  502  0.13680881296E+02 -0.38543548431E+01  0.13667401955E+03  0.13749145495E+03  0.47000000000E+01 0.  1.
         13    1    6    6    0    0  0.88534517915E+02 -0.14752645998E+02  0.43133245978E+02  0.99581516031E+02  0.00000000000E+00 0. -1.
        -14    1    6    6    0    0  0.60396929501E+02 -0.80608858624E+02  0.97511710644E+02  0.14019312000E+03  0.00000000000E+00 0.  1.
</event>
<event>
12    1  0.8297444E-002  0.2029721E+03  0.7818608E-02  0.1147792E+00
         21   -1    0    0  501  502  0.00000000000E+00  0.00000000000E+00  0.82934839711E+03  0.82934839711E+03  0.00000000000E+00 0. -1.
         21   -1    0    0  502  503 -0.00000000000E+00 -0.00000000000E+00 -0.20128105685E+03  0.20128105685E+03  0.00000000000E+00 0. -1.
         -6    2    1    2    0  503 -0.40793494340E+02  0.95257428069E+02 -0.13362988879E+03  0.24301159240E+03  0.17452678900E+03 0.  0.
        -24    2    3    3    0    0 -0.63724255196E+01  0.10227655609E+02 -0.12768407043E+03  0.15096641360E+03  0.79639333548E+02 0.  0.
          6    2    1    2  501    0  0.40793494340E+02 -0.95257428069E+02  0.76169722906E+03  0.78761786156E+03  0.17152591732E+03 0.  0.
         24    2    5    5    0    0  0.38169664615E+02 -0.59618693086E+02  0.73395478423E+03  0.74213448923E+03  0.84039651047E+02 0.  0.
          5    1    5    5  501    0  0.26238297247E+01 -0.35638734983E+02  0.27742444832E+02  0.45483372335E+02  0.47000000000E+01 0. -1.
        -13    1    6    6    0    0  0.59211678759E+02 -0.18445100809E+02  0.35598191828E+03  0.36134384011E+03  0.00000000000E+00 0.  1.
         14    1    6    6    0    0 -0.21042014144E+02 -0.41173592277E+02  0.37797286595E+03  0.38079064912E+03  0.00000000000E+00 0. -1.
         -5    1    3    3    0  503 -0.34421068820E+02  0.85029772460E+02 -0.59458183640E+01  0.92045178795E+02  0.47000000000E+01 0.  1.
         13    1    4    4    0    0 -0.22812896795E+02  0.21161643594E+02 -0.12747820490E+03  0.13122094400E+03  0.00000000000E+00 0. -1.
        -14    1    4    4    0    0  0.16440471276E+02 -0.10933987985E+02 -0.20586552610E+00  0.19745469598E+02  0.00000000000E+00 0.  1.
</event>
<event>
12    1  0.8297444E-002  0.1823021E+03  0.7818608E-02  0.1166130E+00
         21   -1    0    0  501  502  0.00000000000E+00  0.00000000000E+00  0.32522533399E+02  0.32522533399E+02  0.00000000000E+00 0.  1.
         21   -1    0    0  502  503 -0.00000000000E+00 -0.00000000000E+00 -0.13043007084E+04  0.13043007084E+04  0.00000000000E+00 0.  1.
         -6    2    1    2    0  503 -0.89088509939E+01 -0.56053080085E+02 -0.32108371343E+03  0.36922729478E+03  0.17324182165E+03 0.  0.
        -24    2    3    3    0    0 -0.45116554729E+02 -0.80427409243E+02 -0.29141987601E+03  0.31624485446E+03  0.81124547279E+02 0.  0.
          6    2    1    2  501    0  0.89088509939E+01  0.56053080085E+02 -0.95069446159E+03  0.96759594704E+03  0.17088195342E+03 0.  0.
         24    2    5    5    0    0  0.72269091274E+02  0.37772217447E+02 -0.60521853567E+03  0.61585113132E+03  0.79583780213E+02 0.  0.
          5    1    5    5  501    0 -0.63360240280E+02  0.18280862639E+02 -0.34547592593E+03  0.35174481572E+03  0.47000000000E+01 0. -1.
        -11    1    6    6    0    0 -0.94238926637E+00  0.35048688639E+02 -0.29614628635E+03  0.29821455630E+03  0.00000000000E+00 0.  1.
         12    1    6    6    0    0  0.73211480540E+02  0.27235288078E+01 -0.30907224932E+03  0.31763657502E+03  0.00000000000E+00 0. -1.
         -5    1    3    3    0  503  0.36207703735E+02  0.24374329158E+02 -0.29663837412E+02  0.52982440314E+02  0.47000000000E+01 0.  1.
         13    1    4    4    0    0  0.64123598806E+01 -0.25210317312E+02 -0.17856295448E+03  0.18044779625E+03  0.00000000000E+00 0. -1.
        -14    1    4    4    0    0 -0.51528914610E+02 -0.55217091931E+02 -0.11285692154E+03  0.13579705822E+03  0.00000000000E+00 0.  1.
</event>
<event>
12    1  0.8297444E-002  0.2209283E+03  0.7818608E-02  0.1133315E+00
         21   -1    0    0  501  502  0.00000000000E+00  0.00000000000E+00  0.60391960010E+02  0.60391960010E+02  0.00000000000E+00 0.  1.
         21   -1    0    0  502  503 -0.00000000000E+00 -0.00000000000E+00 -0.81608475674E+03  0.81608475674E+03  0.00000000000E+00 0.  1.
         -6    2    1    2    0  503  0.11069089697E+03 -0.82163583040E+02 -0.42648580952E+03  0.48000910645E+03  0.17180008005E+03 0.  0.
        -24    2    3    3    0    0  0.59654679725E+02 -0.83386630740E+02 -0.14593344243E+03  0.19481108402E+03  0.78375875374E+02 0.  0.
          6    2    1    2  501    0 -0.11069089697E+03  0.82163583040E+02 -0.32920698721E+03  0.39646761029E+03  0.17264413264E+03 0.  0.
         24    2    5    5    0    0 -0.10593818307E+03 -0.37978836617E+01 -0.20792562333E+03  0.24766162496E+03  0.82860684822E+02 0.  0.
          5    1    5    5  501    0 -0.47527139007E+01  0.85961466702E+02 -0.12128136388E+03  0.14880598534E+03  0.47000000000E+01 0. -1.
        -13    1    6    6    0    0 -0.10912636917E+03 -0.12319165570E+02 -0.13433827946E+03  0.17351397527E+03  0.00000000000E+00 0.  1.
         14    1    6    6    0    0  0.31881860985E+01  0.85212819078E+01 -0.73587343871E+02  0.74147649686E+02  0.00000000000E+00 0. -1.
         -5    1    3    3    0  503  0.51036217244E+02  0.12230476995E+01 -0.28055236709E+03  0.28519802243E+03  0.47000000000E+01 0.  1.
         11    1    4    4    0    0 -0.11917795988E+02 -0.42951718493E+02 -0.69480614012E+02  0.82549619662E+02  0.00000000000E+00 0. -1.
        -12    1    4    4    0    0  0.71572475713E+02 -0.40434912246E+02 -0.76452828413E+02  0.11226146436E+03  0.00000000000E+00 0.  1.
</event>
<event>
12    1  0.8297444E-002  0.1861895E+03  0.7818608E-02  0.1162179E+00
         21   -1    0    0  501  502  0.00000000000E+00  0.00000000000E+00  0.92197348284E+03  0.92197348284E+03  0.00000000000E+00 0. -1.
         21   -1    0    0  502  503 -0.00000000000E+00 -0.00000000000E+00 -0.57065689635E+02  0.57065689635E+02  0.00000000000E+00 0.  1.
         -6    2    1    2    0  503 -0.71377757304E+02 -0.69910543390E+01  0.14428822004E+03  0.23475487705E+03  0.17072522596E+03 0.  0.
        -24    2    3    3    0    0  0.48633305855E+01 -0.53308172341E+02  0.69089316853E+02  0.11798611435E+03  0.79258919073E+02 0.  0.
          6    2    1    2  501    0  0.71377757304E+02  0.69910543390E+01  0.72061957316E+03  0.74428429542E+03  0.17182224568E+03 0.  0.
         24    2    5    5    0    0  0.89258008687E+02 -0.41471825056E+02  0.59377688373E+03  0.60724593608E+03  0.80558890545E+02 0.  0.
          5    1    5    5  501    0 -0.17880251383E+02  0.48462879396E+02  0.12684268944E+03  0.13703835935E+03  0.47000000000E+01 0. -1.
        -11    1    6    6    0    0  0.59646059084E+02 -0.10927252272E+02  0.15543580258E+03  0.16684527542E+03  0.00000000000E+00 0.  1.
         12    1    6    6    0    0  0.29611949603E+02 -0.30544572785E+02  0.43834108115E+03  0.44040066066E+03  0.00000000000E+00 0. -1.
         -5    1    3    3    0  503 -0.76241087889E+02  0.46317118002E+02  0.75198903185E+02  0.11676876270E+03  0.47000000000E+01 0.  1.
         13    1    4    4    0    0 -0.23159676078E+02  0.10878136334E+02  0.17483392342E+02  0.30989892771E+02  0.00000000000E+00 0. -1.
        -14    1    4    4    0    0  0.28023006664E+02 -0.64186308676E+02  0.51605924511E+02  0.86996221576E+02  0.00000000000E+00 0.  1.
</event>
<event>
12    1  0.8297444E-002  0.1795559E+03  0.7818608E-02  0.1168466E+00
         21   -1    0    0  501  502  0.00000000000E+00  0.00000000000E+00  0.25896012538E+03  0.25896012538E+03  0.00000000000E+00 0. -1.
         21   -1    0    0  502  503 -0.00000000000E+00 -0.00000000000E+00 -0.35849446872E+03  0.35849446872E+03  0.00000000000E+00 0. -1.
         -6    2    1    2    0  503 -0.28909367331E+02 -0.42566169575E+02 -0.29949713124E+03  0.34870670793E+03  0.17102691666E+03 0.  0.
        -24    2    3    3    0    0 -0.16001959549E+02  0.16994447875E+02 -0.26777507859E+03  0.27984128154E+03  0.77863830980E+02 0.  0.
          6    2    1    2  501    0  0.28909367331E+02  0.42566169575E+02  0.19996278789E+03  0.26874788618E+03  0.17202522917E+03 0.  0.
         24    2    5    5    0    0  0.17252839514E+02  0.29331546747E+02  0.22309849401E+03  0.23927958491E+03  0.79522208339E+02 0.  0.
          5    1    5    5  501    0  0.11656527817E+02  0.13234622828E+02 -0.23135706117E+02  0.29468301269E+02  0.47000000000E+01 0. -1.
        -11    1    6    6    0    0 -0.95558749335E+01 -0.21917107514E+02  0.34228971795E+02  0.41752806584E+02  0.00000000000E+00 0.  1.
         12    1    6    6    0    0  0.26808714447E+02  0.51248654261E+02  0.18886952221E+03  0.19752677832E+03  0.00000000000E+00 0. -1.
         -5    1    3    3    0  503 -0.12907407782E+02 -0.59560617450E+02 -0.31722052649E+02  0.68865426383E+02  0.47000000000E+01 0.  1.
         13    1    4    4    0    0 -0.21936904362E+02 -0.14031942811E+02 -0.28960430648E+02  0.38946498371E+02  0.00000000000E+00 0. -1.
        -14    1    4    4    0    0  0.59349448132E+01  0.31026390685E+02 -0.23881464794E+03  0.24089478317E+03  0.00000000000E+00 0.  1.
</event>
<event>
12    1  0.8297444E-002  0.1932996E+03  0.7818608E-02  0.1155540E+00
         21   -1    0    0  501  502  0.00000000000E+00  0.00000000000E+00  0.25031926907E+04  0.25031926907E+04  0.00000000000E+00 0.  1.
         21   -1    0    0  502  503 -0.00000000000E+00 -0.00000000000E+00 -0.15015605024E+02  0.15015605024E+02  0.00000000000E+00 0.  1.
         -6    2    1    2    0  503 -0.84887574005E+02 -0.21399924861E+02  0.11429410114E+04  0.11591553747E+04  0.17222999216E+03 0.  0.
        -24    2    3    3    0    0  0.44890761264E+01  0.59547883707E+01  0.77911050859E+03  0.78348106006E+03  0.82302949881E+02 0.  0.
          6    2    1    2  501    0  0.84887574005E+02  0.21399924861E+02  0.13452360743E+04  0.13590529210E+04  0.17233946023E+03 0.  0.
         24    2    5    5    0    0  0.35886747148E+02 -0.32347175105E+02  0.10779935973E+04  0.10820502797E+04  0.80177388510E+02 0.  0.
          5    1    5    5  501    0  0.49000826857E+02  0.53747099965E+02  0.26724247696E+03  0.27700264129E+03  0.47000000000E+01 0. -1.
        -13    1    6    6    0    0  0.18310315965E+02  0.19770300283E+02  0.14810331999E+03  0.15053479942E+03  0.00000000000E+00 0.  1.
         14    1    6    6    0    0  0.17576431183E+02 -0.52117475388E+02  0.92989027731E+03  0.93151548029E+03  0.00000000000E+00 0. -1.
         -5    1    3    3    0  503 -0.89376650132E+02 -0.27354713232E+02  0.36383050281E+03  0.37567431466E+03  0.47000000000E+01 0.  1.
         11    1    4    4    0    0 -0.21929012398E+02  0.10961253906E+01  0.69142513289E+03  0.69177366058E+03  0.00000000000E+00 0. -1.
        -12    1    4    4    0    0  0.26418088525E+02  0.48586629801E+01  0.87685375699E+02  0.91707399476E+02  0.00000000000E+00 0.  1.
</event>
<event>
12    1  0.8297444E-002  0.1769695E+03  0.7818608E-02  0.1170991E+00
         21   -1    0    0  501  502  0.00000000000E+00  0.00000000000E+00  0.68880380881E+02  0.68880380881E+02  0.00000000000E+00 0. -1.
         21   -1    0    0  502  503 -0.00000000000E+00 -0.00000000000E+00 -0.54630939770E+03  0.54630939770E+03  0.00000000000E+00 0. -1.
         -6    2    1    2    0  503 -0.37218254821E+02  0.80021793769E+01 -0.36575847703E+03  0.40593269404E+03  0.17190943896E+03 0.  0.
        -24    2    3    3    0    0 -0.10549199712E+02  0.46828245508E+02 -0.33932816948E+03  0.35171689312E+03  0.79101176444E+02 0.  0.
          6    2    1    2  501    0  0.37218254821E+02 -0.80021793769E+01 -0.11167053979E+03  0.20925708454E+03  0.17282645807E+03 0.  0.
         24    2    5    5    0    0  0.25608803297E+02  0.59571844433E+02 -0.58672932177E+02  0.12247076955E+03  0.85743576829E+02 0.  0.
          5    1    5    5  501    0  0.11609451524E+02 -0.67574023810E+02 -0.52997607612E+02  0.86786314999E+02  0.47000000000E+01 0. -1.
        -11    1    6    6    0    0 -0.18326102409E+02  0.47225930067E+02 -0.57757664817E+02  0.76825011196E+02  0.00000000000E+00 0.  1.
         12    1    6    6    0    0  0.43934905707E+02  0.12345914366E+02 -0.91526736085E+00  0.45645758350E+02  0.00000000000E+00 0. -1.
         -5    1    3    3    0  503 -0.26669055109E+02 -0.38826066131E+02 -0.26430307555E+02  0.54215800917E+02  0.47000000000E+01 0.  1.
         13    1    4    4    0    0  0.11121661725E+02  0.19763643916E+02 -0.29287271968E+03  0.29374942198E+03  0.00000000000E+00 0. -1.
        -14    1    4    4    0    0 -0.21670861437E+02  0.27064601591E+02 -0.46455449791E+02  0.57967471137E+02  0.00000000000E+00 0.  1.
</event>
<event>
12    1  0.8297444E-002  0.2159230E+03  0.7818608E-02  0.1137225E+00
         21   -1    0    0  501  502  0.00000000000E+00  0.00000000000E+00  0.25151733158E+03  0.25151733158E+03  0.00000000000E+00 0. -1.
         21   -1    0    0  502  503 -0.00000000000E+00 -0.00000000000E+00 -0.29159058834E+03  0.29159058834E+03  0.00000000000E+00 0. -1.
         -6    2    1    2    0  503  0.79763822007E+02  0.10225712437E+03 -0.18488996488E+03  0.28426582805E+03  0.17263827820E+03 0.  0.
        -24    2    3    3    0    0  0.44824950679E+02  0.65862870474E+02 -0.20126901512E+03  0.23101519676E+03  0.80694552352E+02 0.  0.
          6    2    1    2  501    0 -0.79763822007E+02 -0.10225712437E+03  0.14481670813E+03  0.25884209187E+03  0.17090512802E+03 0.  0.
         24    2    5    5    0    0 -0.39252293976E+02  0.15003850715E+02  0.57959969495E+02  0.10732475548E+03  0.79958657789E+02 0.  0.
          5    1    5    5  501    0 -0.40511528031E+02 -0.11726097508E+03  0.86856738635E+02  0.15151733639E+03  0.47000000000E+01 0. -1.
        -13    1    6    6    0    0 -0.91352232041E+01 -0.22365575374E+02 -0.82675936306E+01  0.25534767851E+02  0.00000000000E+00 0.  1.
         14    1    6    6    0    0 -0.30117070772E+02  0.37369426089E+02  0.66227563126E+02  0.81789987625E+02  0.00000000000E+00 0. -1.
         -5    1    3    3    0  503  0.34938871328E+02  0.36394253891E+02  0.16379050235E+02  0.53250631288E+02  0.47000000000E+01 0.  1.
         13    1    4    4    0    0  0.48204178757E+01  0.35000857073E+02 -0.16520079983E+03  0.16893667657E+03  0.00000000000E+00 0. -1.
        -14    1    4    4    0    0  0.40004532803E+02  0.30862013402E+02 -0.36068215284E+02  0.62078520197E+02  0.00000000000E+00 0.  1.
</event>
<event>
12    1  0.8297444E-002  0.2137710E+03  0.7818608E-02  0.1138711E+00
         21   -1    0    0  503  502  0.00000000000E+00  0.00000000000E+00  0.25024980696E+03  0.25024980696E+03  0.00000000000E+00 0.  1.
         21   -1    0    0  501  503 -0.00000000000E+00 -0.00000000000E+00 -0.18605258660E+03  0.18605258660E+03  0.00000000000E+00 0.  1.
          6    2    1    2  501    0  0.12062333371E+03 -0.33704092144E+02  0.63527965680E+02  0.22253038286E+03  0.17262101381E+03 0.  0.
         24    2    3    3    0    0  0.13418539501E+03  0.18410880643E+02  0.57050055733E+02  0.16808818220E+03  0.81573570340E+02 0.  0.
         -6    2    1    2    0  502 -0.12062333371E+03  0.33704092144E+02  0.66925468265E+00  0.21377201069E+03  0.17323992089E+03 0.  0.
        -24    2    5    5    0    0 -0.66269783919E+02  0.89306019722E+02 -0.11587154088E+00  0.13587086084E+03  0.78061693421E+02 0.  0.
          5    1    3    3  501    0 -0.13562061295E+02 -0.52114972786E+02  0.64779099468E+01  0.54442200657E+02  0.47000000000E+01 0. -1.
        -11    1    4    4    0    0  0.98458906547E+02  0.34788281573E+01  0.76521262873E+02  0.12474679232E+03  0.00000000000E+00 0.  1.
         12    1    4    4    0    0  0.35726488462E+02  0.14932052485E+02 -0.19471207139E+02  0.43341389880E+02  0.00000000000E+00 0. -1.
         -5    1    5    5    0  502 -0.54353549794E+02 -0.55601927578E+02  0.78512622353E+00  0.77901149855E+02  0.47000000000E+01 0.  1.
         11    1    6    6    0    0 -0.65791169916E+02  0.77063159744E+02  0.28064738438E+02  0.10514199053E+03  0.00000000000E+00 0. -1.
        -12    1    6    6    0    0 -0.47861400365E+00  0.12242859978E+02 -0.28180609979E+02  0.30728870311E+02  0.00000000000E+00 0.  1.
</event>
<event>
12    1  0.8297444E-002  0.1988764E+03  0.7818608E-02  0.1150742E+00
         21   -1    0    0  503  502  0.00000000000E+00  0.00000000000E+00  0.60340950869E+02  0.60340950869E+02  0.00000000000E+00 0. -1.
         21   -1    0    0  501  503 -0.00000000000E+00 -0.00000000000E+00 -0.65761132936E+03  0.65761132936E+03  0.00000000000E+00 0. -1.
          6    2    1    2  501    0 -0.67403551943E+02  0.71832026934E+02 -0.32243198104E+03  0.37870611957E+03  0.17249018434E+03 0.  0.
         24    2    3    3    0    0 -0.35529007004E+02 -0.25203100409E+02 -0.11573218204E+03  0.14810104708E+03  0.81501383894E+02 0.  0.
         -6    2    1    2    0  502  0.67403551943E+02 -0.71832026934E+02 -0.27483839746E+03  0.33924616066E+03  0.17276786130E+03 0.  0.
        -24    2    5    5    0    0  0.62969038213E+02  0.79807336081E+01 -0.93267882492E+02  0.14080301122E+03  0.84248431326E+02 0.  0.
          5    1    3    3  501    0 -0.31874544940E+02  0.97035127343E+02 -0.20669979900E+03  0.23060507249E+03  0.47000000000E+01 0. -1.
        -11    1    4    4    0    0 -0.47233045761E+02  0.15666566065E+02 -0.58395505542E+02  0.76723118886E+02  0.00000000000E+00 0.  1.
         12    1    4    4    0    0  0.11704038757E+02 -0.40869666474E+02 -0.57336676498E+02  0.71377928190E+02  0.00000000000E+00 0. -1.
         -5    1    5    5    0  502  0.44345137303E+01 -0.79812760542E+02 -0.18157051496E+03  0.19844314944E+03  0.47000000000E+01 0.  1.
         13    1    6    6    0    0  0.74872532163E+02 -0.23967009554E+01 -0.98872531212E+02  0.12404603047E+03  0.00000000000E+00 0. -1.
        -14    1    6    6    0    0 -0.11903493950E+02  0.10377434563E+02  0.56046487205E+01  0.16756980743E+02  0.00000000000E+00 0.  1.
</event>
<event>
12    1  0.8297444E-002  0.1802800E+03  0.7818608E-02  0.1167616E+00
         21   -1    0    0  503  502  0.00000000000E+00  0.00000000000E+00  0.72518349339E+02  0.72518349339E+02  0.00000000000E+00 0.  1.
         21   -1    0    0  501  503 -0.00000000000E+00 -0.00000000000E+00 -0.45666817623E+03  0.45666817623E+03  0.00000000000E+00 0.  1.
          6    2    1    2  501    0 -0.52216928744E+02 -0.18270126390E+02 -0.22976319795E+03  0.29183421244E+03  0.17121820945E+03 0.  0.
         24    2    3    3    0    0 -0.54424354012E+02 -0.73453327133E+02 -0.18657647761E+03  0.22156870749E+03  0.76970829326E+02 0.  0.
         -6    2    1    2    0  502  0.52216928744E+02  0.18270126390E+02 -0.15438662893E+03  0.23735231313E+03  0.17158229567E+03 0.  0.
        -24    2    5    5    0    0  0.78012247724E+02  0.36796119128E+02 -0.16570449241E+03  0.20331123615E+03  0.80234747833E+02 0.  0.
          5    1    3    3  501    0  0.22074252684E+01  0.55183200743E+02 -0.43186720348E+02  0.70265504943E+02  0.47000000000E+01 0. -1.
        -11    1    4    4    0    0  0.82107585663E+00 -0.40922251655E+02 -0.12921110550E+03  0.13553897827E+03  0.00000000000E+00 0.  1.
         12    1    4    4    0    0 -0.55245429869E+02 -0.32531075478E+02 -0.57365372109E+02  0.86029729223E+02  0.00000000000E+00 0. -1.
         -5    1    5    5    0  502 -0.25795318981E+02 -0.18525992739E+02  0.11317863482E+02  0.34041076981E+02  0.47000000000E+01 0.  1.
         11    1    6    6    0    0  0.17028558584E+02  0.38096227603E+01 -0.11768756171E+03  0.11897414515E+03  0.00000000000E+00 0. -1.
        -12    1    6    6    0    0  0.60983689140E+02  0.32986496368E+02 -0.48016930706E+02  0.84337091000E+02  0.00000000000E+00 0.  1.
</event>
<event>
12    1  0.8297444E-002  0.2918811E+03  0.7818608E-02  0.1089568E+00
         21   -1    0    0  503  502  0.00000000000E+00  0.00000000000E+00  0.23148519382E+03  0.23148519382E+03  0.00000000000E+00 0. -1.
         21   -1    0    0  501  503 -0.00000000000E+00 -0.00000000000E+00 -0.94409998869E+03  0.94409998869E+03  0.00000000000E+00 0.  1.
          6    2    1    2  501    0 -0.86172942876E+02  0.21769212038E+03 -0.81657321292E+03  0.86717148090E+03  0.17429552450E+03 0.  0.
         24    2    3    3    0    0 -0.59387325176E+02  0.46813607556E+02 -0.21600334993E+03  0.24217293226E+03  0.79195414613E+02 0.  0.
         -6    2    1    2    0  502  0.86172942876E+02 -0.21769212038E+03  0.10395841805E+03  0.30841370162E+03  0.17174406336E+03 0.  0.
        -24    2    5    5    0    0  0.50539069639E+02 -0.35082201079E+02  0.58305762257E+02  0.11678277893E+03  0.80334906170E+02 0.  0.
          5    1    3    3  501    0 -0.26785617700E+02  0.17087851282E+03 -0.60056986299E+03  0.62499854863E+03  0.47000000000E+01 0. -1.
        -13    1    4    4    0    0 -0.74158129438E+02  0.53569560864E+02 -0.19678423039E+03  0.21700958353E+03  0.00000000000E+00 0.  1.
         14    1    4    4    0    0  0.14770804262E+02 -0.67559533081E+01 -0.19219119542E+02  0.25163348736E+02  0.00000000000E+00 0. -1.
         -5    1    5    5    0  502  0.35633873236E+02 -0.18260991930E+03  0.45652655796E+02  0.19163092269E+03  0.47000000000E+01 0.  1.
         13    1    6    6    0    0 -0.52137214548E+01 -0.43938504074E+02  0.31337496218E+02  0.54220048883E+02  0.00000000000E+00 0. -1.
        -14    1    6    6    0    0  0.55752791094E+02  0.88563029953E+01  0.26968266038E+02  0.62562730045E+02  0.00000000000E+00 0.  1.
</event>
<event>
12    1  0.8297444E-002  0.2283641E+03  0.7818608E-02  0.1127935E+00
         21   -1    0    0  503  502  0.00000000000E+00  0.00000000000E+00  0.32194766650E+03  0.32194766650E+03  0.00000000000E+00 0.  1.
         21   -1    0    0  501  503 -0.00000000000E+00 -0.00000000000E+00 -0.19653045491E+03  0.19653045491E+03  0.00000000000E+00 0.  1.
          6    2    1    2  501    0  0.10369630835E+03  0.10846013076E+03 -0.46758807656E+02  0.23310201604E+03  0.17214424027E+03 0.  0.
         24    2    3    3    0    0  0.85995246974E+02  0.58664187613E+01  0.35421511984E+01  0.11738220885E+03  0.79601750907E+02 0.  0.
         -6    2    1    2    0  502 -0.10369630835E+03 -0.10846013076E+03  0.17217601924E+03  0.28537610538E+03  0.17110936733E+03 0.  0.
        -24    2    5    5    0    0 -0.10832048157E+03 -0.11795910452E+03  0.85672868012E+02  0.19810355154E+03  0.79104359870E+02 0.  0.
          5    1    3    3  501    0  0.17701061378E+02  0.10259371199E+03 -0.50300958855E+02  0.11571980719E+03  0.47000000000E+01 0. -1.
        -13    1    4    4    0    0  0.66775546413E+02  0.39685910585E+02 -0.39045769320E+01  0.77776544142E+02  0.00000000000E+00 0.  1.
         14    1    4    4    0    0  0.19219700561E+02 -0.33819491823E+02  0.74467281303E+01  0.39605664704E+02  0.00000000000E+00 0. -1.
         -5    1    5    5    0  502  0.46241732208E+01  0.94989737657E+01  0.86503151233E+02  0.87272553840E+02  0.47000000000E+01 0.  1.
         11    1    6    6    0    0 -0.17813607016E+02 -0.68916133551E+02  0.57150316809E+02  0.91284811277E+02  0.00000000000E+00 0. -1.
        -12    1    6    6    0    0 -0.90506874556E+02 -0.49042970970E+02  0.28522551203E+02  0.10681874026E+03  0.00000000000E+00 0.  1.
</event>
<event>
12    1  0.8297444E-002  0.1746550E+03  0.7818608E-02  0.1173434E+00
         21   -1    0    0  501  502  0.00000000000E+00  0.00000000000E+00  0.27934439849E+02  0.27934439849E+02  0.00000000000E+00 0.  1.
         21   -1    0    0  502  503 -0.00000000000E+00 -0.00000000000E+00 -0.13004691580E+04  0.13004691580E+04  0.00000000000E+00 0.  1.
         -6    2    1    2    0  503  0.22195460433E+02  0.14321395136E+02 -0.90559317344E+03  0.92201652735E+03  0.17122423921E+03 0.  0.
        -24    2    3    3    0    0  0.74264533630E+02  0.12047867197E+02 -0.62273773147E+03  0.63436109395E+03  0.94611538697E+02 0.  0.
          6    2    1    2  501    0 -0.22195460433E+02 -0.14321395136E+02 -0.36694154475E+03  0.40638707054E+03  0.17264591805E+03 0.  0.
         24    2    5    5    0    0  0.42936163321E+02  0.12127404376E+02 -0.13722009288E+03  0.16610452257E+03  0.82284691602E+02 0.  0.
          5    1    5    5  501    0 -0.65131623754E+02 -0.26448799512E+02 -0.22972145187E+03  0.24028254796E+03  0.47000000000E+01 0. -1.
        -11    1    6    6    0    0  0.62428910143E+02  0.57645050994E+01 -0.13006569669E+03  0.14438727020E+03  0.00000000000E+00 0.  1.
         12    1    6    6    0    0 -0.19492746822E+02  0.63628992770E+01 -0.71543961934E+01  0.21717252376E+02  0.00000000000E+00 0. -1.
         -5    1    3    3    0  503 -0.52069073198E+02  0.22735279389E+01 -0.28285544197E+03  0.28765543340E+03  0.47000000000E+01 0.  1.
         11    1    4    4    0    0  0.68428798645E+02  0.43145415036E+01 -0.19841309918E+03  0.20992587663E+03  0.00000000000E+00 0. -1.
        -12    1    4    4    0    0  0.58357349854E+01  0.77333256935E+01 -0.42432463230E+03  0.42443521732E+03  0.00000000000E+00 0.  1.
</event>
<event>
12    1  0.8297444E-002  0.2075675E+03  0.7818608E-02  0.1146260E+00
         21   -1    0    0  501  502  0.00000000000E+00  0.00000000000E+00  0.13302166789E+04  0.13302166789E+04  0.00000000000E+00 0. -1.
         21   -1    0    0  502  503 -0.00000000000E+00 -0.00000000000E+00 -0.56078454635E+02  0.56078454635E+02  0.00000000000E+00 0. -1.
         -6    2    1    2    0  503  0.90259987477E+02 -0.12873315342E+02  0.17913039643E+03  0.27417508363E+03  0.18647168678E+03 0.  0.
        -24    2    3    3    0    0 -0.20802577912E+02  0.11296143614E+01  0.29398882247E+02  0.87165480103E+02  0.79369410781E+02 0.  0.
          6    2    1    2  501    0 -0.90259987477E+02  0.12873315342E+02  0.10950078278E+04  0.11121200499E+04  0.17162830419E+03 0.  0.
         24    2    5    5    0    0 -0.12464220037E+03  0.18786371500E+02  0.97977108891E+03  0.99162649491E+03  0.86504987643E+02 0.  0.
          5    1    5    5  501    0  0.34382212896E+02 -0.59130561578E+01  0.11523673894E+03  0.12049355500E+03  0.47000000000E+01 0. -1.
        -13    1    6    6    0    0 -0.20335374775E+02  0.38495958348E+02  0.38532126175E+03  0.38777305351E+03  0.00000000000E+00 0.  1.
         14    1    6    6    0    0 -0.10430682560E+03 -0.19709586848E+02  0.59444982716E+03  0.60385344140E+03  0.00000000000E+00 0. -1.
         -5    1    3    3    0  503  0.11106256539E+03 -0.14002929703E+02  0.14973151419E+03  0.18700960353E+03  0.47000000000E+01 0.  1.
         11    1    4    4    0    0  0.26691720324E+02 -0.60987380495E+00  0.29299299745E+02  0.39639233663E+02  0.00000000000E+00 0. -1.
        -12    1    4    4    0    0 -0.47494298235E+02  0.17394881663E+01  0.99582502394E-01  0.47526246439E+02  0.00000000000E+00 0.  1.
</event>
<event>
12    1  0.8297444E-002  0.1795999E+03  0.7818608E-02  0.1168301E+00
         21   -1    0    0  503  502  0.00000000000E+00  0.00000000000E+00  0.29052764143E+03  0.29052764143E+03  0.00000000000E+00 0. -1.
         21   -1    0    0  501  503 -0.00000000000E+00 -0.00000000000E+00 -0.12539960346E+03  0.12539960346E+03  0.00000000000E+00 0. -1.
          6    2    1    2  501    0 -0.39894120523E+02 -0.35762394878E+02  0.11383039112E+02  0.17950888447E+03  0.17094846090E+03 0.  0.
         24    2    3    3    0    0  0.12062714353E+02 -0.36192405119E+02 -0.47428285899E+02  0.10089234964E+03  0.80463809548E+02 0.  0.
         -6    2    1    2    0  502  0.39894120523E+02  0.35762394878E+02  0.15374499885E+03  0.23641836042E+03  0.17142236357E+03 0.  0.
        -24    2    5    5    0    0  0.26941460840E+02  0.82492321206E+02  0.14518019443E+03  0.18695217720E+03  0.79642967901E+02 0.  0.
          5    1    3    3  501    0 -0.51956834875E+02  0.43001024050E+00  0.58811325012E+02  0.78616534830E+02  0.47000000000E+01 0. -1.
        -11    1    4    4    0    0  0.28443549999E+02  0.15919257868E+02 -0.81135324246E+01  0.33589994285E+02  0.00000000000E+00 0.  1.
         12    1    4    4    0    0 -0.16380835647E+02 -0.52111662987E+02 -0.39314753475E+02  0.67302355357E+02  0.00000000000E+00 0. -1.
         -5    1    5    5    0  502  0.12952659683E+02 -0.46729926328E+02  0.85648044294E+01  0.49466183220E+02  0.47000000000E+01 0.  1.
         13    1    6    6    0    0  0.32538917164E+02  0.46850120785E+02  0.13913031209E+03  0.15036940742E+03  0.00000000000E+00 0. -1.
        -14    1    6    6    0    0 -0.55974563242E+01  0.35642200422E+02  0.60498823398E+01  0.36582769777E+02  0.00000000000E+00 0.  1.
</event>
<event>
12    1  0.8297444E-002  0.1768578E+03  0.7818608E-02  0.1171925E+00
         21   -1    0    0  503  502  0.00000000000E+00  0.00000000000E+00  0.11625622423E+03  0.11625622423E+03  0.00000000000E+00 0. -1.
         21   -1    0    0  501  503 -0.00000000000E+00 -0.00000000000E+00 -0.68340358372E+03  0.68340358372E+03  0.00000000000E+00 0. -1.
          6    2    1    2  501    0 -0.29351660077E+02 -0.29348885589E+02 -0.59595571585E+03  0.62047111957E+03  0.16762552889E+03 0.  0.
         24    2    3    3    0    0 -0.39299705714E+02 -0.34780416813E+02 -0.17332302568E+03  0.19766035109E+03  0.79212365828E+02 0.  0.
         -6    2    1    2    0  502  0.29351660077E+02  0.29348885589E+02  0.28808356353E+02  0.17918868838E+03  0.17191796769E+03 0.  0.
        -24    2    5    5    0    0  0.25244817284E+02 -0.39152539109E+02  0.54189378292E+02  0.10587022128E+03  0.78113973884E+02 0.  0.
          5    1    3    3  501    0  0.99480456365E+01  0.54315312240E+01 -0.42263269016E+03  0.42281076847E+03  0.47000000000E+01 0. -1.
        -11    1    4    4    0    0  0.21402302684E+01  0.23240668055E+02 -0.50722045814E+02  0.55833996533E+02  0.00000000000E+00 0.  1.
         12    1    4    4    0    0 -0.41439935982E+02 -0.58021084868E+02 -0.12260097987E+03  0.14182635456E+03  0.00000000000E+00 0. -1.
         -5    1    5    5    0  502  0.41068427937E+01  0.68501424698E+02 -0.25381021938E+02  0.73318467101E+02  0.47000000000E+01 0.  1.
         11    1    6    6    0    0 -0.28068761079E+02 -0.18324372790E+02  0.16723264676E+02  0.37460720336E+02  0.00000000000E+00 0. -1.
        -12    1    6    6    0    0  0.53313578363E+02 -0.20828166319E+02  0.37466113616E+02  0.68409500945E+02  0.00000000000E+00 0.  1.
</event>
<event>
12    1  0.8297444E-002  0.2572524E+03  0.7818608E-02  0.1109061E+00
         21   -1    0    0  501  502  0.00000000000E+00  0.00000000000E+00  0.11036707678E+04  0.11036707678E+04  0.00000000000E+00 0.  1.
         21   -1    0    0  502  503 -0.00000000000E+00 -0.00000000000E+00 -0.10177237076E+03  0.10177237076E+03  0.00000000000E+00 0.  1.
         -6    2    1    2    0  503 -0.16782725591E+03 -0.87534546294E+02  0.11379770578E+03  0.28129825734E+03  0.17421396936E+03 0.  0.
        -24    2    3    3    0    0 -0.13847937352E+03 -0.11824353197E+03  0.55058802794E+02  0.20865743737E+03  0.85722719628E+02 0.  0.
          6    2    1    2  501    0  0.16782725591E+03  0.87534546294E+02  0.88810069129E+03  0.92414488125E+03  0.17173421048E+03 0.  0.
         24    2    5    5    0    0  0.12035310131E+03 -0.12860022927E+02  0.49361427366E+03  0.51429797254E+03  0.78721688326E+02 0.  0.
          5    1    5    5  501    0  0.47474154593E+02  0.10039456922E+03  0.39448641763E+03  0.40984690871E+03  0.47000000000E+01 0. -1.
        -13    1    6    6    0    0  0.39412368246E+02 -0.46204222433E+01  0.32131119754E+03  0.32375232623E+03  0.00000000000E+00 0.  1.
         14    1    6    6    0    0  0.80940733066E+02 -0.82396006833E+01  0.17230307612E+03  0.19054564632E+03  0.00000000000E+00 0. -1.
         -5    1    3    3    0  503 -0.29347882389E+02  0.30708985676E+02  0.58738902986E+02  0.72640819970E+02  0.47000000000E+01 0.  1.
         11    1    4    4    0    0 -0.48524838136E+02 -0.49164975780E+02  0.64938797893E+02  0.94809821387E+02  0.00000000000E+00 0. -1.
        -12    1    4    4    0    0 -0.89954535380E+02 -0.69078556190E+02 -0.98799950991E+01  0.11384761598E+03  0.00000000000E+00 0.  1.
</event>
<event>
12    1  0.8297444E-002  0.2163106E+03  0.7818608E-02  0.1137003E+00
         21   -1    0    0  503  502  0.00000000000E+00  0.00000000000E+00  0.15802161157E+03  0.15802161157E+03  0.00000000000E+00 0.  1.
         21   -1    0    0  501  503 -0.00000000000E+00 -0.00000000000E+00 -0.46294776814E+03  0.46294776814E+03  0.00000000000E+00 0.  1.
          6    2    1    2  501    0  0.11414668230E+03 -0.56432396006E+02 -0.34060086903E+03  0.40348386132E+03  0.17486049857E+03 0.  0.
         24    2    3    3    0    0  0.10173618629E+03  0.20102068529E+02 -0.16104737566E+03  0.20784876310E+03  0.80687708815E+02 0.  0.
         -6    2    1    2    0  502 -0.11414668230E+03  0.56432396006E+02  0.35674712464E+02  0.21748551840E+03  0.17266495072E+03 0.  0.
        -24    2    5    5    0    0 -0.13796338993E+03  0.34462296674E+02 -0.71864797305E+01  0.16354951351E+03  0.80468944483E+02 0.  0.
          5    1    3    3  501    0  0.12410496003E+02 -0.76534464535E+02 -0.17955349337E+03  0.19563509822E+03  0.47000000000E+01 0. -1.
        -13    1    4    4    0    0  0.79385854798E+02 -0.52618296093E+01 -0.15396854470E+03  0.17330930024E+03  0.00000000000E+00 0.  1.
         14    1    4    4    0    0  0.22350331497E+02  0.25363898138E+02 -0.70788309595E+01  0.34539462858E+02  0.00000000000E+00 0. -1.
         -5    1    5    5    0  502  0.23816707631E+02  0.21970099332E+02  0.42861192194E+02  0.53936004888E+02  0.47000000000E+01 0.  1.
         11    1    6    6    0    0 -0.22448234859E+02 -0.11063915873E+01 -0.33028752302E+02  0.39950542290E+02  0.00000000000E+00 0. -1.
        -12    1    6    6    0    0 -0.11551515507E+03  0.35568688261E+02  0.25842272571E+02  0.12359897122E+03  0.00000000000E+00 0.  1.
</event>
<event>
12    1  0.8297444E-002  0.1835643E+03  0.7818608E-02  0.1164403E+00
         21   -1    0    0  503  502  0.00000000000E+00  0.00000000000E+00  0.26631771834E+03  0.26631771834E+03  0.00000000000E+00 0.  1.
         21   -1    0    0  501  503 -0.00000000000E+00 -0.00000000000E+00 -0.13655136182E+03  0.13655136182E+03  0.00000000000E+00 0.  1.
          6    2    1    2  501    0  0.60048411463E+02 -0.12479598341E+02  0.11950502634E+03  0.21901820228E+03  0.17299124114E+03 0.  0.
         24    2    3    3    0    0  0.93280111832E+02 -0.19751958349E+02  0.13342378921E+03  0.18196344429E+03  0.78850925224E+02 0.  0.
         -6    2    1    2    0  502 -0.60048411463E+02  0.12479598341E+02  0.10261330177E+02  0.18385087788E+03  0.17301531235E+03 0.  0.
        -24    2    5    5    0    0  0.13769588259E+02 -0.25584322194E+02 -0.32037632178E+02  0.90527508109E+02  0.79527735702E+02 0.  0.
          5    1    3    3  501    0 -0.33231700370E+02  0.72723600078E+01 -0.13918762868E+02  0.37054757985E+02  0.47000000000E+01 0. -1.
        -13    1    4    4    0    0  0.79502934239E+02 -0.69802793156E+01  0.14074737753E+03  0.16180007767E+03  0.00000000000E+00 0.  1.
         14    1    4    4    0    0  0.13777177593E+02 -0.12771679033E+02 -0.73235883174E+01  0.20163366624E+02  0.00000000000E+00 0. -1.
         -5    1    5    5    0  502 -0.73817999722E+02  0.38063920535E+02  0.42298962355E+02  0.93323369773E+02  0.47000000000E+01 0.  1.
         13    1    6    6    0    0 -0.22903994927E+01 -0.47534361878E+02  0.11694551788E+01  0.47603877094E+02  0.00000000000E+00 0. -1.
        -14    1    6    6    0    0  0.16059987752E+02  0.21950039684E+02 -0.33207087357E+02  0.42923631014E+02  0.00000000000E+00 0.  1.
</event>
<event>
12    1  0.8297444E-002  0.2122815E+03  0.7818608E-02  0.1139814E+00
         21   -1    0    0  501  502  0.00000000000E+00  0.00000000000E+00  0.27354998549E+03  0.27354998549E+03  0.00000000000E+00 0. -1.
         21   -1    0    0  502  503 -0.00000000000E+00 -0.00000000000E+00 -0.42623912075E+03  0.42623912075E+03  0.00000000000E+00 0. -1.
         -6    2    1    2    0  503 -0.12016810122E+03  0.29769351313E+02 -0.35050950448E+03  0.40978087616E+03  0.17244380796E+03 0.  0.
        -24    2    3    3    0    0 -0.67077910999E+02 -0.34994765444E+02 -0.11222985905E+03  0.15717003208E+03  0.79892414966E+02 0.  0.
          6    2    1    2  501    0  0.12016810122E+03 -0.29769351313E+02  0.19782036922E+03  0.29000823009E+03  0.17217807122E+03 0.  0.
         24    2    5    5    0    0  0.68883916800E+02  0.39917394486E+02  0.63970789785E+02  0.13055883364E+03  0.81332371905E+02 0.  0.
          5    1    5    5  501    0  0.51284184421E+02 -0.69686745799E+02  0.13384957943E+03  0.15944939644E+03  0.47000000000E+01 0. -1.
        -11    1    6    6    0    0 -0.96369444405E+01  0.30894960534E+02  0.31338953832E+02  0.45049964615E+02  0.00000000000E+00 0.  1.
         12    1    6    6    0    0  0.78520861240E+02  0.90224339521E+01  0.32631835953E+02  0.85508869025E+02  0.00000000000E+00 0. -1.
         -5    1    3    3    0  503 -0.53090190222E+02  0.64764116757E+02 -0.23827964544E+03  0.25261084408E+03  0.47000000000E+01 0.  1.
         11    1    4    4    0    0 -0.95304922125E+01 -0.66758843006E+01 -0.87751778988E+02  0.88519898489E+02  0.00000000000E+00 0. -1.
        -12    1    4    4    0    0 -0.57547418786E+02 -0.28318881143E+02 -0.24478080057E+02  0.68650133587E+02  0.00000000000E+00 0.  1.
</event>
<event>
12    1  0.8297444E-002  0.1838245E+03  0.7818608E-02  0.1164179E+00
         21   -1    0    0  501  502  0.00000000000E+00  0.00000000000E+00  0.19180009851E+03  0.19180009851E+03  0.00000000000E+00 0.  1.
         21   -1    0    0  502  503 -0.00000000000E+00 -0.00000000000E+00 -0.26686343528E+03  0.26686343528E+03  0.00000000000E+00 0.  1.
         -6    2    1    2    0  503 -0.41771673716E+00  0.64451705573E+02 -0.17130441087E+03  0.25127005313E+03  0.17215470246E+03 0.  0.
        -24    2    3    3    0    0 -0.42804780554E+02  0.95138284977E+02 -0.12990167822E+03  0.18437756024E+03  0.78975288591E+02 0.  0.
          6    2    1    2  501    0  0.41771673716E+00 -0.64451705573E+02  0.96241074104E+02  0.20739348066E+03  0.17203346953E+03 0.  0.
         24    2    5    5    0    0 -0.37733130540E+02  0.20972039479E+02  0.45222245859E+02  0.10072711201E+03  0.78976477463E+02 0.  0.
          5    1    5    5  501    0  0.38150847277E+02 -0.85423745052E+02  0.51018828245E+02  0.10666636866E+03  0.47000000000E+01 0. -1.
        -11    1    6    6    0    0 -0.15077930094E+02 -0.12267759428E+02  0.55837282026E+02  0.59123971123E+02  0.00000000000E+00 0.  1.
         12    1    6    6    0    0 -0.22655200447E+02  0.33239798907E+02 -0.10615036167E+02  0.41603140884E+02  0.00000000000E+00 0. -1.
         -5    1    3    3    0  503  0.42387063817E+02 -0.30686579405E+02 -0.41402732646E+02  0.66892492890E+02  0.47000000000E+01 0.  1.
         11    1    4    4    0    0 -0.51691953662E+01 -0.94845267220E+01 -0.39880651610E+02  0.41317589483E+02  0.00000000000E+00 0. -1.
        -12    1    4    4    0    0 -0.37635585187E+02  0.10462281170E+03 -0.90021026611E+02  0.14305997075E+03  0.00000000000E+00 0.  1.
</event>
<event>
12    1  0.8297444E-002  0.1798543E+03  0.7818608E-02  0.1168231E+00
         21   -1    0    0  501  502  0.00000000000E+00  0.00000000000E+00  0.34745457922E+03  0.34745457922E+03  0.00000000000E+00 0.  1.
         21   -1    0    0  502  503 -0.00000000000E+00 -0.00000000000E+00 -0.96885696697E+02  0.96885696697E+02  0.00000000000E+00 0.  1.
         -6    2    1    2    0  503  0.11322852293E+00 -0.49213700158E+02  0.77557747786E+02  0.19477980555E+03  0.17176136732E+03 0.  0.
        -24    2    3    3    0    0  0.53108248059E+02 -0.23570957395E+02  0.90966975212E+02  0.13421645250E+03  0.79768348979E+02 0.  0.
          6    2    1    2  501    0 -0.11322852293E+00  0.49213700158E+02  0.17301113473E+03  0.24956047037E+03  0.17299009949E+03 0.  0.
         24    2    5    5    0    0 -0.57020530187E+02  0.50542629158E+02  0.14755214869E+03  0.18702682338E+03  0.86031958335E+02 0.  0.
          5    1    5    5  501    0  0.56907301664E+02 -0.13289289994E+01  0.25458986040E+02  0.62533646984E+02  0.47000000000E+01 0. -1.
        -11    1    6    6    0    0 -0.65261272996E+02  0.17316166054E+02  0.51090146369E+02  0.84670457752E+02  0.00000000000E+00 0.  1.
         12    1    6    6    0    0  0.82407428091E+01  0.33226463103E+02  0.96462002325E+02  0.10235636563E+03  0.00000000000E+00 0. -1.
         -5    1    3    3    0  503 -0.52995019536E+02 -0.25642742763E+02 -0.13409227426E+02  0.60563353046E+02  0.47000000000E+01 0.  1.
         13    1    4    4    0    0 -0.19050101372E+02  0.70284377660E+01  0.18285729095E+02  0.27325321375E+02  0.00000000000E+00 0. -1.
        -14    1    4    4    0    0  0.72158349431E+02 -0.30599395161E+02  0.72681246117E+02  0.10689113113E+03  0.00000000000E+00 0.  1.
</event>
<event>
12    1  0.8297444E-002  0.1940148E+03  0.7818608E-02  0.1160314E+00
         21   -1    0    0  501  502  0.00000000000E+00  0.00000000000E+00  0.64249266694E+02  0.64249266694E+02  0.00000000000E+00 0.  1.
         21   -1    0    0  502  503 -0.00000000000E+00 -0.00000000000E+00 -0.64945107407E+03  0.64945107407E+03  0.00000000000E+00 0.  1.
         -6    2    1    2    0  503  0.28373554207E+02  0.10084280013E+02 -0.46756908715E+03  0.50622384519E+03  0.19166371306E+03 0.  0.
        -24    2    3    3    0    0  0.24650937322E+02  0.39915627912E+02 -0.46650045662E+03  0.47577718421E+03  0.80872287701E+02 0.  0.
          6    2    1    2  501    0 -0.28373554207E+02 -0.10084280013E+02 -0.11763272023E+03  0.20747649557E+03  0.16823283884E+03 0.  0.
         24    2    5    5    0    0 -0.24375392828E+02 -0.11074174226E+02 -0.15130103835E+03  0.17323308994E+03  0.80005638139E+02 0.  0.
          5    1    5    5  501    0 -0.39981613795E+01  0.98989421294E+00  0.33668318115E+02  0.34243405637E+02  0.47000000000E+01 0. -1.
        -13    1    6    6    0    0 -0.28445010851E+02 -0.43166956459E+02 -0.85591774228E+02  0.99992282641E+02  0.00000000000E+00 0.  1.
         14    1    6    6    0    0  0.40696180231E+01  0.32092782233E+02 -0.65709264118E+02  0.73240807295E+02  0.00000000000E+00 0. -1.
         -5    1    3    3    0  503  0.37226168851E+01 -0.29831347899E+02 -0.10686305216E+01  0.30446660985E+02  0.47000000000E+01 0.  1.
         11    1    4    4    0    0  0.31058002641E+02  0.87169503959E+00 -0.37244095536E+03  0.37373469816E+03  0.00000000000E+00 0. -1.
        -12    1    4    4    0    0 -0.64070653185E+01  0.39043932872E+02 -0.94059501263E+02  0.10204248604E+03  0.00000000000E+00 0.  1.
</event>
<event>
12    1  0.8297444E-002  0.2079181E+03  0.7818608E-02  0.1145556E+00
         21   -1    0    0  501  502  0.00000000000E+00  0.00000000000E+00  0.54450769306E+03  0.54450769306E+03  0.00000000000E+00 0. -1.
         21   -1    0    0  502  503 -0.00000000000E+00 -0.00000000000E+00 -0.90761160942E+02  0.90761160942E+02  0.00000000000E+00 0. -1.
         -6    2    1    2    0  503 -0.22273165453E+02 -0.90708075026E+02  0.89921653397E+02  0.21622414207E+03  0.17304024703E+03 0.  0.
        -24    2    3    3    0    0  0.29277940035E+02 -0.82121811327E+02  0.72743445285E+01  0.11832670562E+03  0.79668710957E+02 0.  0.
          6    2    1    2  501    0  0.22273165453E+02  0.90708075026E+02  0.36382487872E+03  0.41904471193E+03  0.18575758247E+03 0.  0.
         24    2    5    5    0    0 -0.46140631370E+02  0.95202666553E+02  0.19568501333E+03  0.23740288502E+03  0.82915618512E+02 0.  0.
          5    1    5    5  501    0  0.68413796823E+02 -0.44945915270E+01  0.16813986538E+03  0.18164182690E+03  0.47000000000E+01 0. -1.
        -11    1    6    6    0    0 -0.24174524199E+02 -0.84123516363E+01  0.20969620499E+02  0.33089277178E+02  0.00000000000E+00 0.  1.
         12    1    6    6    0    0 -0.21966107171E+02  0.10361501819E+03  0.17471539283E+03  0.20431360785E+03  0.00000000000E+00 0. -1.
         -5    1    3    3    0  503 -0.51551105488E+02 -0.85862636989E+01  0.82647308869E+02  0.97897436456E+02  0.47000000000E+01 0.  1.
         11    1    4    4    0    0 -0.11682917736E+02 -0.57208475950E+02  0.29574303924E+02  0.65451812351E+02  0.00000000000E+00 0. -1.
        -12    1    4    4    0    0  0.40960857771E+02 -0.24913335376E+02 -0.22299959395E+02  0.52874893266E+02  0.00000000000E+00 0.  1.
</event>
<event>
12    1  0.8297444E-002  0.1821733E+03  0.7818608E-02  0.1165721E+00
         21   -1    0    0  501  502  0.00000000000E+00  0.00000000000E+00  0.11893160471E+04  0.11893160471E+04  0.00000000000E+00 0.  1.
         21   -1    0    0  502  503 -0.00000000000E+00 -0.00000000000E+00 -0.30394484027E+02  0.30394484027E+02  0.00000000000E+00 0.  1.
         -6    2    1    2    0  503  0.10347814823E+02 -0.56323561332E+02  0.40476108464E+03  0.44385930765E+03  0.17291653626E+03 0.  0.
        -24    2    3    3    0    0 -0.51196512580E+02 -0.26157748767E+02  0.14783309496E+03  0.17790487101E+03  0.80561829946E+02 0.  0.
          6    2    1    2  501    0 -0.10347814823E+02  0.56323561332E+02  0.75416047847E+03  0.77585122351E+03  0.17293835004E+03 0.  0.
         24    2    5    5    0    0 -0.33134908710E+02  0.81956386950E+02  0.34431861793E+03  0.36454995431E+03  0.80787294794E+02 0.  0.
          5    1    5    5  501    0  0.22787093887E+02 -0.25632825618E+02  0.40984186054E+03  0.41130126920E+03  0.47000000000E+01 0. -1.
        -11    1    6    6    0    0 -0.24851769851E+02  0.15036306535E+02  0.22999312292E+03  0.23182005428E+03  0.00000000000E+00 0.  1.
         12    1    6    6    0    0 -0.82831388593E+01  0.66920080414E+02  0.11432549501E+03  0.13272990003E+03  0.00000000000E+00 0. -1.
         -5    1    3    3    0  503  0.61544327404E+02 -0.30165812565E+02  0.25692798968E+03  0.26595443664E+03  0.47000000000E+01 0.  1.
         11    1    4    4    0    0 -0.25017010042E+02  0.28586368629E+02  0.63791628770E+02  0.74245559894E+02  0.00000000000E+00 0. -1.
        -12    1    4    4    0    0 -0.26179502538E+02 -0.54744117396E+02  0.84041466188E+02  0.10365931112E+03  0.00000000000E+00 0.  1.
</event>
<event>
12    1  0.8297444E-002  0.2123702E+03  0.7818608E-02  0.1139801E+00
         21   -1    0    0  501  502  0.00000000000E+00  0.00000000000E+00  0.18851382227E+03  0.18851382227E+03  0.00000000000E+00 0.  1.
         21   -1    0    0  502  503 -0.00000000000E+00 -0.00000000000E+00 -0.68308493336E+03  0.68308493336E+03  0.00000000000E+00 0.  1.
         -6    2    1    2    0  503  0.92541508604E+02  0.82077898538E+02 -0.59869412635E+03  0.63507666422E+03  0.17200872147E+03 0.  0.
        -24    2    3    3    0    0 -0.52138540747E+01 -0.21921727645E+01 -0.18600381032E+03  0.20264985793E+03  0.80234391441E+02 0.  0.
          6    2    1    2  501    0 -0.92541508604E+02 -0.82077898538E+02  0.10412301526E+03  0.23652209142E+03  0.17262788065E+03 0.  0.
         24    2    5    5    0    0 -0.22700221572E+02 -0.10912276880E+03  0.62316535459E+02  0.15062039100E+03  0.79875358298E+02 0.  0.
          5    1    5    5  501    0 -0.69841287032E+02  0.27044870260E+02  0.41806479798E+02  0.85901700418E+02  0.47000000000E+01 0. -1.
        -11    1    6    6    0    0  0.17813170096E+02 -0.45631462031E+02  0.56942305993E+02  0.75113018630E+02  0.00000000000E+00 0.  1.
         12    1    6    6    0    0 -0.40513391669E+02 -0.63491306767E+02  0.53742294661E+01  0.75507372368E+02  0.00000000000E+00 0. -1.
         -5    1    3    3    0  503  0.97755362679E+02  0.84270071302E+02 -0.41269031603E+03  0.43242680629E+03  0.47000000000E+01 0.  1.
         13    1    4    4    0    0  0.64207551021E+01  0.24102611887E+02 -0.14706206867E+02  0.28955733737E+02  0.00000000000E+00 0. -1.
        -14    1    4    4    0    0 -0.11634609177E+02 -0.26294784651E+02 -0.17129760345E+03  0.17369412419E+03  0.00000000000E+00 0.  1.
</event>
<event>
12    1  0.8297444E-002  0.1974920E+03  0.7818608E-02  0.1151916E+00
         21   -1    0    0  501  502  0.00000000000E+00  0.00000000000E+00  0.44859007415E+03  0.44859007415E+03  0.00000000000E+00 0.  1.
         21   -1    0    0  502  503 -0.00000000000E+00 -0.00000000000E+00 -0.87598089996E+02  0.87598089996E+02  0.00000000000E+00 0.  1.
         -6    2    1    2    0  503 -0.77500615163E+02  0.61385947926E+02  0.15573766678E+03  0.25135059766E+03  0.17072879703E+03 0.  0.
        -24    2    3    3    0    0 -0.10843638526E+03  0.73749593391E+02  0.15447047453E+03  0.21768195680E+03  0.79541527772E+02 0.  0.
          6    2    1    2  501    0  0.77500615163E+02 -0.61385947926E+02  0.20525431738E+03  0.28483756649E+03  0.17096351812E+03 0.  0.
         24    2    5    5    0    0  0.92286146062E+02  0.11519034068E+02  0.14286150547E+03  0.18763313603E+03  0.78405121577E+02 0.  0.
          5    1    5    5  501    0 -0.14785530900E+02 -0.72904981994E+02  0.62392811909E+02  0.97204430462E+02  0.47000000000E+01 0. -1.
        -11    1    6    6    0    0  0.62635348970E+02 -0.52784035449E+01  0.29830442924E+02  0.69576603896E+02  0.00000000000E+00 0.  1.
         12    1    6    6    0    0  0.29650797092E+02  0.16797437613E+02  0.11303106255E+03  0.11805653213E+03  0.00000000000E+00 0. -1.
         -5    1    3    3    0  503  0.30935770101E+02 -0.12363645465E+02  0.12671922440E+01  0.33668640857E+02  0.47000000000E+01 0.  1.
         13    1    4    4    0    0 -0.25963058985E+02  0.20503237460E+02  0.10018048543E+03  0.10550162482E+03  0.00000000000E+00 0. -1.
        -14    1    4    4    0    0 -0.82473326279E+02  0.53246355931E+02  0.54289989104E+02  0.11218033199E+03  0.00000000000E+00 0.  1.
</event>
<event>
12    1  0.8297444E-002  0.2225834E+03  0.7818608E-02  0.1132324E+00
         21   -1    0    0  503  502  0.00000000000E+00  0.00000000000E+00  0.16419130209E+04  0.16419130209E+04  0.00000000000E+00 0. -1.
         21   -1    0    0  501  503 -0.00000000000E+00 -0.00000000000E+00 -0.31766050862E+03  0.31766050862E+03  0.00000000000E+00 0.  1.
          6    2    1    2  501    0 -0.13244455702E+03  0.48590044847E+02 -0.27011468253E+03  0.35000759007E+03  0.17216509009E+03 0.  0.
         24    2    3    3    0    0 -0.56686238446E+02 -0.26689258379E+02 -0.63851615441E+02  0.11768703744E+03  0.76469365405E+02 0.  0.
         -6    2    1    2    0  502  0.13244455702E+03 -0.48590044847E+02  0.15943671948E+04  0.16095659394E+04  0.16968561644E+03 0.  0.
        -24    2    5    5    0    0  0.64512859411E+01  0.15605823706E+02  0.55021692598E+03  0.55587372263E+03  0.77277222093E+02 0.  0.
          5    1    3    3  501    0 -0.75758318573E+02  0.75279303226E+02 -0.20626306709E+03  0.23232055262E+03  0.47000000000E+01 0. -1.
        -13    1    4    4    0    0  0.92933526473E+01  0.88622383506E+01 -0.35165321283E+02  0.37436686458E+02  0.00000000000E+00 0.  1.
         14    1    4    4    0    0 -0.65979591094E+02 -0.35551496730E+02 -0.28686294158E+02  0.80250350984E+02  0.00000000000E+00 0. -1.
         -5    1    5    5    0  502  0.12599327108E+03 -0.64195868553E+02  0.10441502688E+04  0.10536922168E+04  0.47000000000E+01 0.  1.
         13    1    6    6    0    0  0.32896299270E+02  0.15530133136E+02  0.47009301487E+03  0.47149845617E+03  0.00000000000E+00 0. -1.
        -14    1    6    6    0    0 -0.26445013329E+02  0.75690569788E-01  0.80123911109E+02  0.84375266461E+02  0.00000000000E+00 0.  1.
</event>
<event>
12    1  0.8297444E-002  0.1811419E+03  0.7818608E-02  0.1166750E+00
         21   -1    0    0  503  502  0.00000000000E+00  0.00000000000E+00  0.63687124734E+02  0.63687124734E+02  0.00000000000E+00 0. -1.
         21   -1    0    0  501  503 -0.00000000000E+00 -0.00000000000E+00 -0.85740789311E+03  0.85740789311E+03  0.00000000000E+00 0. -1.
          6    2    1    2  501    0 -0.56072388162E+02 -0.13100097669E+02 -0.68791976676E+03  0.71131840176E+03  0.17153582106E+03 0.  0.
         24    2    3    3    0    0 -0.85795384954E+02  0.28165423913E+02 -0.36507481683E+03  0.38445872009E+03  0.79842008872E+02 0.  0.
         -6    2    1    2    0  502  0.56072388162E+02  0.13100097669E+02 -0.10580100162E+03  0.20977661609E+03  0.17174589206E+03 0.  0.
        -24    2    5    5    0    0 -0.33697682335E+02  0.57045258451E+01 -0.26832755972E+02  0.89895700759E+02  0.78696663284E+02 0.  0.
          5    1    3    3  501    0  0.29722996792E+02 -0.41265521581E+02 -0.32284494993E+03  0.32685968168E+03  0.47000000000E+01 0. -1.
        -11    1    4    4    0    0 -0.36474947748E+02  0.53648782053E+02 -0.20615753655E+03  0.21612390776E+03  0.00000000000E+00 0.  1.
         12    1    4    4    0    0 -0.49320437206E+02 -0.25483358140E+02 -0.15891728028E+03  0.16833481233E+03  0.00000000000E+00 0. -1.
         -5    1    5    5    0  502  0.89770070497E+02  0.73955718234E+01 -0.78968245645E+02  0.11988091533E+03  0.47000000000E+01 0.  1.
         13    1    6    6    0    0 -0.52508279375E+01  0.12938476319E+02  0.25968413315E+02  0.29484468006E+02  0.00000000000E+00 0. -1.
        -14    1    6    6    0    0 -0.28446854398E+02 -0.72339504741E+01 -0.52801169288E+02  0.60411232753E+02  0.00000000000E+00 0.  1.
</event>
<event>
12    1  0.8297444E-002  0.1924443E+03  0.7818608E-02  0.1156337E+00
         21   -1    0    0  503  502  0.00000000000E+00  0.00000000000E+00  0.95325454756E+02  0.95325454756E+02  0.00000000000E+00 0. -1.
         21   -1    0    0  501  503 -0.00000000000E+00 -0.00000000000E+00 -0.62030114189E+03  0.62030114189E+03  0.00000000000E+00 0. -1.
          6    2    1    2  501    0 -0.85468112193E+02 -0.11225771025E+02 -0.48160069975E+03  0.51862708219E+03  0.17205813042E+03 0.  0.
         24    2    3    3    0    0 -0.13676560862E+02 -0.11724163764E+02 -0.40529157438E+03  0.41374882967E+03  0.81254719570E+02 0.  0.
         -6    2    1    2    0  502  0.85468112193E+02  0.11225771025E+02 -0.43374987379E+02  0.19699951445E+03  0.17174575112E+03 0.  0.
        -24    2    5    5    0    0 -0.63738409006E+01  0.41095940286E+02  0.16704285824E+01  0.90330161501E+02  0.80170104087E+02 0.  0.
          5    1    3    3  501    0 -0.71791551331E+02  0.49839273948E+00 -0.76309125371E+02  0.10487825253E+03  0.47000000000E+01 0. -1.
        -11    1    4    4    0    0  0.31651756256E+02 -0.19234403887E+02 -0.16529404245E+03  0.16939278744E+03  0.00000000000E+00 0.  1.
         12    1    4    4    0    0 -0.45328317119E+02  0.75102401225E+01 -0.23999753194E+03  0.24435604223E+03  0.00000000000E+00 0. -1.
         -5    1    5    5    0  502  0.91841953094E+02 -0.29870169261E+02 -0.45045415961E+02  0.10666935295E+03  0.47000000000E+01 0.  1.
         13    1    6    6    0    0 -0.32648418338E+02  0.27437609965E+01  0.22130974642E+02  0.39537671694E+02  0.00000000000E+00 0. -1.
        -14    1    6    6    0    0  0.26274577437E+02  0.38352179290E+02 -0.20460546060E+02  0.50792489807E+02  0.00000000000E+00 0.  1.
</event>
<event>
12    1  0.8297444E-002  0.2496151E+03  0.7818608E-02  0.1113596E+00
         21   -1    0    0  501  502  0.00000000000E+00  0.00000000000E+00  0.16329364785E+04  0.16329364785E+04  0.00000000000E+00 0.  1.
         21   -1    0    0  502  503 -0.00000000000E+00 -0.00000000000E+00 -0.38165125273E+02  0.38165125273E+02  0.00000000000E+00 0. -1.
         -6    2    1    2    0  503 -0.13958147737E+03 -0.11381578957E+03  0.82944333492E+03  0.86618933430E+03  0.17283140406E+03 0.  0.
        -24    2    3    3    0    0 -0.67664627693E+02  0.10680237798E+02  0.32294927991E+03  0.33966335027E+03  0.79889829147E+02 0.  0.
          6    2    1    2  501    0  0.13958147737E+03  0.11381578957E+03  0.76532801833E+03  0.80491226950E+03  0.17239420863E+03 0.  0.
         24    2    5    5    0    0  0.14278555853E+03  0.14228663641E+03  0.61408894528E+03  0.65091161212E+03  0.77119980894E+02 0.  0.
          5    1    5    5  501    0 -0.32040811534E+01 -0.28470846844E+02  0.15123907305E+03  0.15400065738E+03  0.47000000000E+01 0. -1.
        -13    1    6    6    0    0  0.49349177776E+02  0.21642691806E+02  0.25693394276E+03  0.26252390062E+03  0.00000000000E+00 0.  1.
         14    1    6    6    0    0  0.93436380749E+02  0.12064394460E+03  0.35715500252E+03  0.38838771150E+03  0.00000000000E+00 0. -1.
         -5    1    3    3    0  503 -0.71916849678E+02 -0.12449602736E+03  0.50649405501E+03  0.52652598403E+03  0.47000000000E+01 0.  1.
         13    1    4    4    0    0 -0.23808438440E+02 -0.82666588840E+01  0.17941204510E+02  0.30936486700E+02  0.00000000000E+00 0. -1.
        -14    1    4    4    0    0 -0.43856189253E+02  0.18946896682E+02  0.30500807541E+03  0.30872686357E+03  0.00000000000E+00 0.  1.
</event>
<event>
12    1  0.8297444E-002  0.2216928E+03  0.7818608E-02  0.1132930E+00
         21   -1    0    0  503  502  0.00000000000E+00  0.00000000000E+00  0.25755631737E+02  0.25755631737E+02  0.00000000000E+00 0. -1.
         21   -1    0    0  501  503 -0.00000000000E+00 -0.00000000000E+00 -0.21429497671E+04  0.21429497671E+04  0.00000000000E+00 0. -1.
          6    2    1    2  501    0  0.57649936942E+02 -0.12723232824E+03 -0.14315181660E+04  0.14485827341E+04  0.17215137914E+03 0.  0.
         24    2    3    3    0    0  0.27674941443E+01 -0.87668608956E+02 -0.12366458475E+04  0.12422464044E+04  0.78674857582E+02 0.  0.
         -6    2    1    2    0  502 -0.57649936942E+02  0.12723232824E+03 -0.68567596933E+03  0.72012266471E+03  0.17003980927E+03 0.  0.
        -24    2    5    5    0    0 -0.80200216501E+02  0.66808987280E+02 -0.27814325131E+03  0.30749147164E+03  0.79321002095E+02 0.  0.
          5    1    3    3  501    0  0.54882442797E+02 -0.39563719284E+02 -0.19487231849E+03  0.20633632963E+03  0.47000000000E+01 0. -1.
        -13    1    4    4    0    0  0.31797929747E+02 -0.92911439710E+01 -0.43321927507E+03  0.43448403191E+03  0.00000000000E+00 0.  1.
         14    1    4    4    0    0 -0.29030435603E+02 -0.78377464985E+02 -0.80342657242E+03  0.80776237253E+03  0.00000000000E+00 0. -1.
         -5    1    5    5    0  502  0.22550279560E+02  0.60423340960E+02 -0.40753271802E+03  0.41263119307E+03  0.47000000000E+01 0.  1.
         11    1    6    6    0    0 -0.68441762201E+02  0.75350336900E+02 -0.27412209768E+03  0.29241216206E+03  0.00000000000E+00 0. -1.
        -12    1    6    6    0    0 -0.11758454300E+02 -0.85413496194E+01 -0.40211536285E+01  0.15079309578E+02  0.00000000000E+00 0.  1.
</event>
<event>
12    1  0.8297444E-002  0.1734577E+03  0.7818608E-02  0.1176366E+00
         21   -1    0    0  501  502  0.00000000000E+00  0.00000000000E+00  0.48264304348E+03  0.48264304348E+03  0.00000000000E+00 0.  1.
         21   -1    0    0  502  503 -0.00000000000E+00 -0.00000000000E+00 -0.62827452376E+02  0.62827452376E+02  0.00000000000E+00 0.  1.
         -6    2    1    2    0  503 -0.21080298122E+02  0.29761294104E+01  0.14254405210E+03  0.21841228858E+03  0.16410936809E+03 0.  0.
        -24    2    3    3    0    0  0.17289224221E+02 -0.57675302460E+02  0.82465941806E+02  0.12469843811E+03  0.71580102824E+02 0.  0.
          6    2    1    2  501    0  0.21080298122E+02 -0.29761294104E+01  0.27727153900E+03  0.32705820728E+03  0.17214624101E+03 0.  0.
         24    2    5    5    0    0  0.28586279461E+02  0.49127019335E+02  0.93476081156E+02  0.13581506835E+03  0.80481772094E+02 0.  0.
          5    1    5    5  501    0 -0.75059813384E+01 -0.52103148745E+02  0.18379545784E+03  0.19124313893E+03  0.47000000000E+01 0. -1.
        -11    1    6    6    0    0  0.76528455978E+01 -0.19569206632E+02  0.45279812117E+01  0.21494708833E+02  0.00000000000E+00 0.  1.
         12    1    6    6    0    0  0.20933433863E+02  0.68696225967E+02  0.88948099944E+02  0.11432035951E+03  0.00000000000E+00 0. -1.
         -5    1    3    3    0  503 -0.38369522344E+02  0.60651431870E+02  0.60078110297E+02  0.93713850469E+02  0.47000000000E+01 0.  1.
         11    1    4    4    0    0 -0.21989117911E+02 -0.29584258239E+02  0.11037469126E+02  0.38478245370E+02  0.00000000000E+00 0. -1.
        -12    1    4    4    0    0  0.39278342133E+02 -0.28091044221E+02  0.71428472680E+02  0.86220192736E+02  0.00000000000E+00 0.  1.
</event>
<event>
12    1  0.8297444E-002  0.2424498E+03  0.7818608E-02  0.1118221E+00
         21   -1    0    0  503  502  0.00000000000E+00  0.00000000000E+00  0.58508141358E+03  0.58508141358E+03  0.00000000000E+00 0. -1.
         21   -1    0    0  501  503 -0.00000000000E+00 -0.00000000000E+00 -0.19262580903E+03  0.19262580903E+03  0.00000000000E+00 0.  1.
          6    2    1    2  501    0 -0.10577269084E+03 -0.13390674400E+03 -0.72984294651E+02  0.25290609384E+03  0.17180194068E+03 0.  0.
         24    2    3    3    0    0 -0.10792294326E+02 -0.11349764292E+03 -0.72750823167E+02  0.15564381114E+03  0.77033272733E+02 0.  0.
         -6    2    1    2    0  502  0.10577269084E+03  0.13390674400E+03  0.46543989921E+03  0.52480112877E+03  0.17222963382E+03 0.  0.
        -24    2    5    5    0    0  0.10660415300E+03  0.72299485629E+02  0.42403035664E+03  0.45041708593E+03  0.80511781031E+02 0.  0.
          5    1    3    3  501    0 -0.94980396509E+02 -0.20409101074E+02 -0.23347148386E+00  0.97262282703E+02  0.47000000000E+01 0. -1.
        -13    1    4    4    0    0  0.29891980443E+02 -0.32201716100E+02 -0.96559008712E+01  0.44985747034E+02  0.00000000000E+00 0.  1.
         14    1    4    4    0    0 -0.40684274770E+02 -0.81295926825E+02 -0.63094922295E+02  0.11065806410E+03  0.00000000000E+00 0. -1.
         -5    1    5    5    0  502 -0.83146216482E+00  0.61607258370E+02  0.41409542567E+02  0.74384042837E+02  0.47000000000E+01 0.  1.
         11    1    6    6    0    0  0.62840908205E+01  0.46679836566E+02  0.16076855599E+03  0.16752619358E+03  0.00000000000E+00 0. -1.
        -12    1    6    6    0    0  0.10032006218E+03  0.25619649063E+02  0.26326180065E+03  0.28289089235E+03  0.00000000000E+00 0.  1.
</event>
<event>
12    1  0.8297444E-002  0.2110107E+03  0.7818608E-02  0.1140867E+00
         21   -1    0    0  503  502  0.00000000000E+00  0.00000000000E+00  0.16333236575E+04  0.16333236575E+04  0.00000000000E+00 0.  1.
         21   -1    0    0  501  503 -0.00000000000E+00 -0.00000000000E+00 -0.39002509122E+02  0.39002509122E+02  0.00000000000E+00 0. -1.
          6    2    1    2  501    0  0.61830631700E+01 -0.12128853092E+03  0.33777255263E+03  0.39826598701E+03  0.17255828318E+03 0.  0.
         24    2    3    3    0    0  0.61485398875E+02 -0.66293988358E+02  0.26552577620E+03  0.29184965955E+03  0.80603590390E+02 0.  0.
         -6    2    1    2    0  502 -0.61830631700E+01  0.12128853092E+03  0.12565485957E+04  0.12740601796E+04  0.17194717154E+03 0.  0.
        -24    2    5    5    0    0 -0.57307565497E+02  0.54658120993E+02  0.93002167739E+03  0.93687292500E+03  0.80739642805E+02 0.  0.
          5    1    3    3  501    0 -0.55302335705E+02 -0.54994542558E+02  0.72246776424E+02  0.10641632746E+03  0.47000000000E+01 0. -1.
        -13    1    4    4    0    0  0.11126188797E+02 -0.12785524959E+00 -0.23439651708E+01  0.11371129972E+02  0.00000000000E+00 0.  1.
         14    1    4    4    0    0  0.50359210078E+02 -0.66166133109E+02  0.26786974137E+03  0.28047852958E+03  0.00000000000E+00 0. -1.
         -5    1    5    5    0  502  0.51124502327E+02  0.66630409923E+02  0.32652691834E+03  0.33718725460E+03  0.47000000000E+01 0.  1.
         11    1    6    6    0    0 -0.19357624170E+02  0.50851779734E+02  0.25334340718E+03  0.25912063422E+03  0.00000000000E+00 0. -1.
        -12    1    6    6    0    0 -0.37949941327E+02  0.38063412592E+01  0.67667827021E+03  0.67775229078E+03  0.00000000000E+00 0.  1.
</event>
<event>
12    1  0.8297444E-002  0.1984758E+03  0.7818608E-02  0.1151087E+00
         21   -1    0    0  503  502  0.00000000000E+00  0.00000000000E+00  0.92719170052E+02  0.92719170052E+02  0.00000000000E+00 0.  1.
         21   -1    0    0  501  503 -0.00000000000E+00 -0.00000000000E+00 -0.48309054303E+03  0.48309054303E+03  0.00000000000E+00 0.  1.
          6    2    1    2  501    0  0.90483805854E+02  0.39564069694E+02 -0.29572895255E+03  0.35615762699E+03  0.17216273450E+03 0.  0.
         24    2    3    3    0    0  0.95764137237E+02 -0.23855692677E+02 -0.14547091360E+03  0.19291083091E+03  0.79453998803E+02 0.  0.
         -6    2    1    2    0  502 -0.90483805854E+02 -0.39564069694E+02 -0.94642420426E+02  0.21965208610E+03  0.17186394750E+03 0.  0.
        -24    2    5    5    0    0 -0.28411616352E+02  0.29772189762E+02 -0.86253201581E+02  0.12609492401E+03  0.82260025839E+02 0.  0.
          5    1    3    3  501    0 -0.52803313835E+01  0.63419762370E+02 -0.15025803895E+03  0.16324679608E+03  0.47000000000E+01 0. -1.
        -13    1    4    4    0    0  0.10155586424E+03 -0.27807471856E+02 -0.15092696501E+03  0.18402662259E+03  0.00000000000E+00 0.  1.
         14    1    4    4    0    0 -0.57917270062E+01  0.39517791790E+01  0.54560514183E+01  0.88842083200E+01  0.00000000000E+00 0. -1.
         -5    1    5    5    0  502 -0.62072189502E+02 -0.69336259456E+02 -0.83892188452E+01  0.93557162087E+02  0.47000000000E+01 0.  1.
         11    1    6    6    0    0  0.22373665695E+02  0.30894289014E+02 -0.21474588625E+02  0.43774375689E+02  0.00000000000E+00 0. -1.
        -12    1    6    6    0    0 -0.50785282047E+02 -0.11220992520E+01 -0.64778612956E+02  0.82320548321E+02  0.00000000000E+00 0.  1.
</event>
<event>
12    1  0.8297444E-002  0.1757693E+03  0.7818608E-02  0.1172873E+00
         21   -1    0    0  501  502  0.00000000000E+00  0.00000000000E+00  0.46550088268E+03  0.46550088268E+03  0.00000000000E+00 0.  1.
         21   -1    0    0  502  503 -0.00000000000E+00 -0.00000000000E+00 -0.10584102752E+03  0.10584102752E+03  0.00000000000E+00 0.  1.
         -6    2    1    2    0  503  0.22191265100E+02 -0.24813653840E+02  0.12630655116E+01  0.17216387200E+03  0.16891013535E+03 0.  0.
        -24    2    3    3    0    0 -0.79159297980E+01  0.40264881656E+02  0.26087412985E+02  0.96137579212E+02  0.82933457550E+02 0.  0.
          6    2    1    2  501    0 -0.22191265100E+02  0.24813653840E+02  0.35839678965E+03  0.39917803821E+03  0.17258817367E+03 0.  0.
         24    2    5    5    0    0  0.18951239478E+02  0.76967969608E+01  0.70215862178E+02  0.10753436961E+03  0.78835164645E+02 0.  0.
          5    1    5    5  501    0 -0.41142504578E+02  0.17116856879E+02  0.28818092748E+03  0.29164366860E+03  0.47000000000E+01 0. -1.
        -11    1    6    6    0    0 -0.26131702570E+02 -0.30348934147E+01  0.50961248575E+02  0.57350896363E+02  0.00000000000E+00 0.  1.
         12    1    6    6    0    0  0.45082942048E+02  0.10731690376E+02  0.19254613602E+02  0.50183473246E+02  0.00000000000E+00 0. -1.
         -5    1    3    3    0  503  0.30107194898E+02 -0.65078535496E+02 -0.24824347474E+02  0.76026292784E+02  0.47000000000E+01 0.  1.
         13    1    4    4    0    0  0.80738429971E+00 -0.20598374741E+02  0.27823435256E+02  0.34627856717E+02  0.00000000000E+00 0. -1.
        -14    1    4    4    0    0 -0.87233140977E+01  0.60863256397E+02 -0.17360222710E+01  0.61509722495E+02  0.00000000000E+00 0.  1.
</event>
<event>
12    1  0.8297444E-002  0.2543232E+03  0.7818608E-02  0.1110938E+00
         21   -1    0    0  501  502  0.00000000000E+00  0.00000000000E+00  0.19148808946E+03  0.19148808946E+03  0.00000000000E+00 0. -1.
         21   -1    0    0  502  503 -0.00000000000E+00 -0.00000000000E+00 -0.44358454268E+03  0.44358454268E+03  0.00000000000E+00 0. -1.
         -6    2    1    2    0  503 -0.13798374759E+03  0.12620622608E+03 -0.28280733245E+03  0.37890189018E+03  0.16917189187E+03 0.  0.
        -24    2    3    3    0    0 -0.30676591559E+01  0.72399738697E+02 -0.13153177476E+03  0.16913088801E+03  0.77804349551E+02 0.  0.
          6    2    1    2  501    0  0.13798374759E+03 -0.12620622608E+03  0.30710879224E+02  0.25617074196E+03  0.17237390996E+03 0.  0.
         24    2    5    5    0    0  0.23995536270E+02 -0.10361890786E+03 -0.88887823767E+01  0.13331423028E+03  0.79881222544E+02 0.  0.
          5    1    5    5  501    0  0.11398821132E+03 -0.22587318218E+02  0.39599661600E+02  0.12285651168E+03  0.47000000000E+01 0. -1.
        -13    1    6    6    0    0  0.22856006097E+02 -0.69938619612E+02 -0.43116493184E+02  0.85280944603E+02  0.00000000000E+00 0.  1.
         14    1    6    6    0    0  0.11395301731E+01 -0.33680288252E+02  0.34227710808E+02  0.48033285676E+02  0.00000000000E+00 0. -1.
         -5    1    3    3    0  503 -0.13491608843E+03  0.53806487385E+02 -0.15127555768E+03  0.20977100218E+03  0.47000000000E+01 0.  1.
         11    1    4    4    0    0 -0.16455933276E+02  0.22674500288E+02 -0.10966028127E+03  0.11318263114E+03  0.00000000000E+00 0. -1.
        -12    1    4    4    0    0  0.13388274120E+02  0.49725238409E+02 -0.21871493492E+02  0.55948256866E+02  0.00000000000E+00 0.  1.
</event>
<event>
12    1  0.8297444E-002  0.2442446E+03  0.7818608E-02  0.1117113E+00
         21   -1    0    0  501  502  0.00000000000E+00  0.00000000000E+00  0.64011391221E+03  0.64011391221E+03  0.00000000000E+00 0. -1.
         21   -1    0    0  502  503 -0.00000000000E+00 -0.00000000000E+00 -0.12563172257E+03  0.12563172257E+03  0.00000000000E+00 0. -1.
         -6    2    1    2    0  503  0.16955574057E+03  0.35952807003E+02  0.61604426828E+02  0.25120343669E+03  0.17107398315E+03 0.  0.
        -24    2    3    3    0    0  0.96896307626E+02 -0.42331717642E+02  0.56070795078E+02  0.14414937990E+03  0.80338290470E+02 0.  0.
          6    2    1    2  501    0 -0.16955574057E+03 -0.35952807003E+02  0.45287776281E+03  0.51454219809E+03  0.17208617629E+03 0.  0.
         24    2    5    5    0    0 -0.18054577488E+02 -0.38311669460E+02  0.21964665659E+03  0.23637497220E+03  0.76385351653E+02 0.  0.
          5    1    5    5  501    0 -0.15150116308E+03  0.23588624577E+01  0.23323110622E+03  0.27816722589E+03  0.47000000000E+01 0. -1.
        -13    1    6    6    0    0 -0.19808977349E+02 -0.57842404964E+02  0.11847978989E+03  0.13332516644E+03  0.00000000000E+00 0.  1.
         14    1    6    6    0    0  0.17543998611E+01  0.19530735504E+02  0.10116686670E+03  0.10304980576E+03  0.00000000000E+00 0. -1.
         -5    1    3    3    0  503  0.72659432945E+02  0.78284524645E+02  0.55336317502E+01  0.10705405679E+03  0.47000000000E+01 0.  1.
         13    1    4    4    0    0  0.48809210670E+02  0.15436416142E+02  0.14087074110E+01  0.51211389809E+02  0.00000000000E+00 0. -1.
        -14    1    4    4    0    0  0.48087096956E+02 -0.57768133785E+02  0.54662087667E+02  0.92937990094E+02  0.00000000000E+00 0.  1.
</event>
<event>
12    1  0.8297444E-002  0.1934780E+03  0.7818608E-02  0.1157391E+00
         21   -1    0    0  503  502  0.00000000000E+00  0.00000000000E+00  0.45910952653E+03  0.45910952653E+03  0.00000000000E+00 0.  1.
         21   -1    0    0  501  503 -0.00000000000E+00 -0.00000000000E+00 -0.28772724498E+03  0.28772724498E+03  0.00000000000E+00 0. -1.
          6    2    1    2  501    0 -0.88216763855E+02  0.10894719597E+02 -0.23380288072E+03  0.29782812055E+03  0.16166913751E+03 0.  0.
         24    2    3    3    0    0 -0.56460790130E+02 -0.13931428193E+02 -0.42027204725E+02  0.10180572545E+03  0.72223363834E+02 0.  0.
         -6    2    1    2    0  502  0.88216763855E+02 -0.10894719597E+02  0.40518516227E+03  0.44900865096E+03  0.17185127457E+03 0.  0.
        -24    2    5    5    0    0  0.61024190732E+02 -0.24620556926E+02  0.10460695487E+03  0.14685441318E+03  0.79331456469E+02 0.  0.
          5    1    3    3  501    0 -0.31755973726E+02  0.24826147790E+02 -0.19177567599E+03  0.19602239511E+03  0.47000000000E+01 0. -1.
        -13    1    4    4    0    0 -0.28614022018E+02  0.36279184053E+01 -0.58328393208E+02  0.65070158308E+02  0.00000000000E+00 0.  1.
         14    1    4    4    0    0 -0.27846768111E+02 -0.17559346598E+02  0.16301188482E+02  0.36735567141E+02  0.00000000000E+00 0. -1.
         -5    1    5    5    0  502  0.27192573123E+02  0.13725837329E+02  0.30057820740E+03  0.30215423778E+03  0.47000000000E+01 0.  1.
         11    1    6    6    0    0  0.59452642263E+02 -0.22758526061E+02  0.26901024282E+02  0.69110290753E+02  0.00000000000E+00 0. -1.
        -12    1    6    6    0    0  0.15715484686E+01 -0.18620308647E+01  0.77705930586E+02  0.77744122426E+02  0.00000000000E+00 0.  1.
</event>
<event>
12    1  0.8297444E-002  0.2427876E+03  0.7818608E-02  0.1118475E+00
         21   -1    0    0  503  502  0.00000000000E+00  0.00000000000E+00  0.19497139862E+03  0.19497139862E+03  0.00000000000E+00 0.  1.
         21   -1    0    0  501  503 -0.00000000000E+00 -0.00000000000E+00 -0.30096540826E+03  0.30096540826E+03  0.00000000000E+00 0.  1.
          6    2    1    2  501    0  0.32987344660E+02  0.16899401889E+03 -0.29701813880E+02  0.24144453585E+03  0.16663169810E+03 0.  0.
         24    2    3    3    0    0 -0.25601223825E+02  0.15891291969E+03 -0.27336714375E+02  0.18176260714E+03  0.79884984178E+02 0.  0.
         -6    2    1    2    0  502 -0.32987344660E+02 -0.16899401889E+03 -0.76292195761E+02  0.25449227103E+03  0.17116855304E+03 0.  0.
        -24    2    5    5    0    0  0.42794898189E+02 -0.82751695000E+02 -0.65895490471E+02  0.13911953490E+03  0.79578784797E+02 0.  0.
          5    1    3    3  501    0  0.58588568485E+02  0.10081099206E+02 -0.23650995060E+01  0.59681928705E+02  0.47000000000E+01 0. -1.
        -11    1    4    4    0    0  0.76109783777E+01  0.14240188410E+03 -0.21759849898E+02  0.14425572659E+03  0.00000000000E+00 0.  1.
         12    1    4    4    0    0 -0.33212202202E+02  0.16511035592E+02 -0.55768644764E+01  0.37506880553E+02  0.00000000000E+00 0. -1.
         -5    1    5    5    0  502 -0.75782242849E+02 -0.86242323894E+02 -0.10396705290E+02  0.11537273613E+03  0.47000000000E+01 0.  1.
         11    1    6    6    0    0  0.15542668176E+02 -0.69700564102E+02 -0.78728046189E+02  0.10629133750E+03  0.00000000000E+00 0. -1.
        -12    1    6    6    0    0  0.27252230013E+02 -0.13051130899E+02  0.12832555719E+02  0.32828197402E+02  0.00000000000E+00 0.  1.
</event>
<event>
12    1  0.8297444E-002  0.1994115E+03  0.7818608E-02  0.1150406E+00
         21   -1    0    0  503  502  0.00000000000E+00  0.00000000000E+00  0.11954552294E+03  0.11954552294E+03  0.00000000000E+00 0. -1.
         21   -1    0    0  501  503 -0.00000000000E+00 -0.00000000000E+00 -0.72163403387E+03  0.72163403387E+03  0.00000000000E+00 0. -1.
          6    2    1    2  501    0  0.73599182485E+01 -0.98580492963E+02 -0.61009289592E+03  0.64160748183E+03  0.17226298817E+03 0.  0.
         24    2    3    3    0    0  0.48006226869E+02 -0.15885820184E+01 -0.27397149696E+03  0.28938704228E+03  0.79858360134E+02 0.  0.
         -6    2    1    2    0  502 -0.73599182485E+01  0.98580492963E+02  0.80043849887E+01  0.19957207499E+03  0.17318389344E+03 0.  0.
        -24    2    5    5    0    0 -0.58473823751E+02  0.92757557329E+02  0.33036445044E+02  0.14216796412E+03  0.84244707928E+02 0.  0.
          5    1    3    3  501    0 -0.40646308620E+02 -0.96991910944E+02 -0.33612139896E+03  0.35222043954E+03  0.47000000000E+01 0. -1.
        -11    1    4    4    0    0  0.22174610115E+02  0.37795686064E+02 -0.10055823953E+03  0.10969132489E+03  0.00000000000E+00 0.  1.
         12    1    4    4    0    0  0.25831616754E+02 -0.39384268082E+02 -0.17341325743E+03  0.17969571739E+03  0.00000000000E+00 0. -1.
         -5    1    5    5    0  502  0.51113905502E+02  0.58229356339E+01 -0.25032060055E+02  0.57404110878E+02  0.47000000000E+01 0.  1.
         13    1    6    6    0    0 -0.94627878316E+01  0.81808395717E+02  0.39849973616E+02  0.91488678865E+02  0.00000000000E+00 0. -1.
        -14    1    6    6    0    0 -0.49011035919E+02  0.10949161612E+02 -0.68135285716E+01  0.50679285250E+02  0.00000000000E+00 0.  1.
</event>
<event>
12    1  0.8297444E-002  0.3300141E+03  0.7818608E-02  0.1071189E+00
         21   -1    0    0  501  502  0.00000000000E+00  0.00000000000E+00  0.35885598126E+03  0.35885598126E+03  0.00000000000E+00 0.  1.
         21   -1    0    0  502  503 -0.00000000000E+00 -0.00000000000E+00 -0.57584633175E+03  0.57584633175E+03  0.00000000000E+00 0. -1.
         -6    2    1    2    0  503 -0.28038360782E+03 -0.40934226042E+01 -0.43014542445E+03  0.54183545707E+03  0.17299957431E+03 0.  0.
        -24    2    3    3    0    0 -0.22662893215E+03  0.52549172510E+02 -0.36397048116E+03  0.43937003921E+03  0.80308354330E+02 0.  0.
          6    2    1    2  501    0  0.28038360782E+03  0.40934226042E+01  0.21315507396E+03  0.39286685594E+03  0.17400447494E+03 0.  0.
         24    2    5    5    0    0  0.13793386530E+03  0.13404002223E+02  0.18773120038E+03  0.24779074010E+03  0.83377627778E+02 0.  0.
          5    1    5    5  501    0  0.14244974253E+03 -0.93105796188E+01  0.25423873580E+02  0.14507611584E+03  0.47000000000E+01 0. -1.
        -11    1    6    6    0    0  0.14313596796E+03  0.10014663999E+02  0.14280941883E+03  0.20244191494E+03  0.00000000000E+00 0.  1.
         12    1    6    6    0    0 -0.52021026668E+01  0.33893382244E+01  0.44921781549E+02  0.45348825159E+02  0.00000000000E+00 0. -1.
         -5    1    3    3    0  503 -0.53754675669E+02 -0.56642595115E+02 -0.66174943292E+02  0.10246541786E+03  0.47000000000E+01 0.  1.
         11    1    4    4    0    0 -0.14801042058E+03  0.77059716851E+01 -0.17141805222E+03  0.22660674135E+03  0.00000000000E+00 0. -1.
        -12    1    4    4    0    0 -0.78618511574E+02  0.44843200825E+02 -0.19255242894E+03  0.21276329785E+03  0.00000000000E+00 0.  1.
</event>
<event>
12    1  0.8297444E-002  0.1989758E+03  0.7818608E-02  0.1150738E+00
         21   -1    0    0  503  502  0.00000000000E+00  0.00000000000E+00  0.35879054241E+03  0.35879054241E+03  0.00000000000E+00 0. -1.
         21   -1    0    0  501  503 -0.00000000000E+00 -0.00000000000E+00 -0.16259700620E+03  0.16259700620E+03  0.00000000000E+00 0.  1.
          6    2    1    2  501    0  0.57927925105E+02 -0.81118733322E+02 -0.50065792884E+02  0.20517787218E+03  0.17220767176E+03 0.  0.
         24    2    3    3    0    0  0.97177175234E+02 -0.20651357598E+02 -0.34891780420E+02  0.13135952882E+03  0.78536663503E+02 0.  0.
         -6    2    1    2    0  502 -0.57927925105E+02  0.81118733322E+02  0.24625932909E+03  0.31620967643E+03  0.17149055047E+03 0.  0.
        -24    2    5    5    0    0 -0.29908747590E+02  0.10839589917E+03  0.23898615425E+03  0.27615836987E+03  0.80652707251E+02 0.  0.
          5    1    3    3  501    0 -0.39249250129E+02 -0.60467375724E+02 -0.15174012464E+02  0.73818343363E+02  0.47000000000E+01 0. -1.
        -13    1    4    4    0    0  0.77230656024E+02 -0.48522483470E+02 -0.17298916926E+02  0.92834574157E+02  0.00000000000E+00 0.  1.
         14    1    4    4    0    0  0.19946519209E+02  0.27871125873E+02 -0.17592863494E+02  0.38524954664E+02  0.00000000000E+00 0. -1.
         -5    1    5    5    0  502 -0.28019177515E+02 -0.27277165844E+02  0.72731748455E+01  0.40051306564E+02  0.47000000000E+01 0.  1.
         13    1    6    6    0    0 -0.55442335660E+02  0.79295314361E+02  0.19413020485E+03  0.21690582264E+03  0.00000000000E+00 0. -1.
        -14    1    6    6    0    0  0.25533588070E+02  0.29100584806E+02  0.44855949401E+02  0.59252547223E+02  0.00000000000E+00 0.  1.
</event>
<event>
12    1  0.8297444E-002  0.3493334E+03  0.7818608E-02  0.1063237E+00
         21   -1    0    0  501  502  0.00000000000E+00  0.00000000000E+00  0.26281642840E+04  0.26281642840E+04  0.00000000000E+00 0. -1.
         21   -1    0    0  502  503 -0.00000000000E+00 -0.00000000000E+00 -0.93046675339E+02  0.93046675339E+02  0.00000000000E+00 0. -1.
         -6    2    1    2    0  503 -0.98414780773E+02 -0.28365121576E+03  0.30297387673E+03  0.46241432394E+03  0.17857871016E+03 0.  0.
        -24    2    3    3    0    0 -0.12997384239E+03 -0.17698247975E+03  0.23217960575E+03  0.33047451790E+03  0.84202374160E+02 0.  0.
          6    2    1    2  501    0  0.98414780773E+02  0.28365121576E+03  0.22321437319E+04  0.22587966354E+04  0.17191020574E+03 0.  0.
         24    2    5    5    0    0  0.15976501126E+02  0.15381595774E+03  0.81044931191E+03  0.82879999971E+03  0.78528688396E+02 0.  0.
          5    1    5    5  501    0  0.82438279647E+02  0.12983525802E+03  0.14216944200E+04  0.14299966357E+04  0.47000000000E+01 0. -1.
        -13    1    6    6    0    0 -0.44153124540E+01 -0.85948379361E+01  0.39376557336E+02  0.40544783769E+02  0.00000000000E+00 0.  1.
         14    1    6    6    0    0  0.20391813580E+02  0.16241079568E+03  0.77107275458E+03  0.78825521595E+03  0.00000000000E+00 0. -1.
         -5    1    3    3    0  503  0.31559061612E+02 -0.10666873601E+03  0.70794270985E+02  0.13193980604E+03  0.47000000000E+01 0.  1.
         11    1    4    4    0    0 -0.90809711547E+02 -0.11861549402E+03  0.97006807911E+02  0.17811894878E+03  0.00000000000E+00 0. -1.
        -12    1    4    4    0    0 -0.39164130838E+02 -0.58366985727E+02  0.13517279784E+03  0.15235556912E+03  0.00000000000E+00 0.  1.
</event>
<event>
12    1  0.8297444E-002  0.2599230E+03  0.7818608E-02  0.1107204E+00
         21   -1    0    0  501  502  0.00000000000E+00  0.00000000000E+00  0.14799607437E+04  0.14799607437E+04  0.00000000000E+00 0. -1.
         21   -1    0    0  502  503 -0.00000000000E+00 -0.00000000000E+00 -0.46915555233E+02  0.46915555233E+02  0.00000000000E+00 0. -1.
         -6    2    1    2    0  503  0.65687556636E+02  0.18120680059E+03  0.59013591741E+03  0.64480145872E+03  0.17423478548E+03 0.  0.
        -24    2    3    3    0    0  0.10850350666E+03  0.13637146903E+03  0.49745620797E+03  0.53319934819E+03  0.80428089237E+02 0.  0.
          6    2    1    2  501    0 -0.65687556636E+02 -0.18120680059E+03  0.84290927109E+03  0.88207484024E+03  0.17438240975E+03 0.  0.
         24    2    5    5    0    0 -0.18142172064E+02 -0.11748894699E+03  0.29453880980E+03  0.32795140519E+03  0.81646938810E+02 0.  0.
          5    1    5    5  501    0 -0.47545384573E+02 -0.63717853605E+02  0.54837046129E+03  0.55412343505E+03  0.47000000000E+01 0. -1.
        -11    1    6    6    0    0  0.11497285786E+01  0.12618703860E+02  0.27358036766E+02  0.30149887870E+02  0.00000000000E+00 0.  1.
         12    1    6    6    0    0 -0.19291900642E+02 -0.13010765085E+03  0.26718077303E+03  0.29780151732E+03  0.00000000000E+00 0. -1.
         -5    1    3    3    0  503 -0.42815950024E+02  0.44835331567E+02  0.92679709444E+02  0.11160211053E+03  0.47000000000E+01 0.  1.
         13    1    4    4    0    0  0.22145859768E+02  0.17201316070E+02  0.22463493729E+02  0.35929555104E+02  0.00000000000E+00 0. -1.
        -14    1    4    4    0    0  0.86357646892E+02  0.11917015296E+03  0.47499271424E+03  0.49726979309E+03  0.00000000000E+00 0.  1.
</event>
<event>
12    1  0.8297444E-002  0.1765599E+03  0.7818608E-02  0.1171385E+00
         21   -1    0    0  501  502  0.00000000000E+00  0.00000000000E+00  0.28953926691E+02  0.28953926691E+02  0.00000000000E+00 0.  1.
         21   -1    0    0  502  503 -0.00000000000E+00 -0.00000000000E+00 -0.14199857367E+04  0.14199857367E+04  0.00000000000E+00 0.  1.
         -6    2    1    2    0  503 -0.16193338663E+02  0.39463237375E+01 -0.33535413628E+03  0.37859918495E+03  0.17492040600E+03 0.  0.
        -24    2    3    3    0    0  0.45147366462E+02  0.44274261505E+02 -0.19964318431E+03  0.22423410744E+03  0.80156340785E+02 0.  0.
          6    2    1    2  501    0  0.16193338663E+02 -0.39463237375E+01 -0.10556776737E+04  0.10703404784E+04  0.17577141774E+03 0.  0.
         24    2    5    5    0    0 -0.38296927626E+02  0.34372342824E+02 -0.40330400464E+03  0.41455773740E+03  0.80968418925E+02 0.  0.
          5    1    5    5  501    0  0.54490266289E+02 -0.38318666561E+02 -0.65237366908E+03  0.65578274103E+03  0.47000000000E+01 0. -1.
        -11    1    6    6    0    0  0.94652752324E+00  0.21085089903E+02 -0.32742150261E+03  0.32810107787E+03  0.00000000000E+00 0.  1.
         12    1    6    6    0    0 -0.39243455150E+02  0.13287252921E+02 -0.75882502033E+02  0.86456659530E+02  0.00000000000E+00 0. -1.
         -5    1    3    3    0  503 -0.61340705124E+02 -0.40327937767E+02 -0.13571095197E+03  0.15436507751E+03  0.47000000000E+01 0.  1.
         13    1    4    4    0    0  0.56816361174E+02  0.33874222848E+02 -0.81056894503E+02  0.10462209144E+03  0.00000000000E+00 0. -1.
        -14    1    4    4    0    0 -0.11668994713E+02  0.10400038657E+02 -0.11858628981E+03  0.11961201600E+03  0.00000000000E+00 0.  1.
</event>
<event>
12    1  0.8297444E-002  0.2893449E+03  0.7818608E-02  0.1090779E+00
         21   -1    0    0  503  502  0.00000000000E+00  0.00000000000E+00  0.11015326308E+03  0.11015326308E+03  0.00000000000E+00 0. -1.
         21   -1    0    0  501  503 -0.00000000000E+00 -0.00000000000E+00 -0.91395374478E+03  0.91395374478E+03  0.00000000000E+00 0. -1.
          6    2    1    2  501    0 -0.35870915894E+02  0.22900332796E+03 -0.61361188180E+03  0.67840993501E+03  0.17317982446E+03 0.  0.
         24    2    3    3    0    0 -0.75669665504E+02  0.16066192504E+03 -0.32310079715E+03  0.37728991220E+03  0.80096194042E+02 0.  0.
         -6    2    1    2    0  502  0.35870915894E+02 -0.22900332796E+03 -0.19018859989E+03  0.34569707285E+03  0.17206253463E+03 0.  0.
        -24    2    5    5    0    0 -0.32692993118E+02 -0.15195495162E+03 -0.16288381737E+03  0.23890239572E+03  0.79900423006E+02 0.  0.
          5    1    3    3  501    0  0.39798749610E+02  0.68341402921E+02 -0.29051108466E+03  0.30112002280E+03  0.47000000000E+01 0. -1.
        -11    1    4    4    0    0  0.21372165218E+01  0.52091315067E+02 -0.45386193433E+02  0.69122929294E+02  0.00000000000E+00 0.  1.
         12    1    4    4    0    0 -0.77806882026E+02  0.10857060997E+03 -0.27771460371E+03  0.30816698291E+03  0.00000000000E+00 0. -1.
         -5    1    5    5    0  502  0.68563909011E+02 -0.77048376333E+02 -0.27304782524E+02  0.10679467713E+03  0.47000000000E+01 0.  1.
         11    1    6    6    0    0  0.54986623700E+01 -0.10077809640E+03 -0.13661609463E+03  0.16985410597E+03  0.00000000000E+00 0. -1.
        -12    1    6    6    0    0 -0.38191655488E+02 -0.51176855225E+02 -0.26267722739E+02  0.69048289751E+02  0.00000000000E+00 0.  1.
</event>
<event>
12    1  0.8297444E-002  0.1798748E+03  0.7818608E-02  0.1168581E+00
         21   -1    0    0  501  502  0.00000000000E+00  0.00000000000E+00  0.65151524631E+03  0.65151524631E+03  0.00000000000E+00 0.  1.
         21   -1    0    0  502  503 -0.00000000000E+00 -0.00000000000E+00 -0.76111500371E+02  0.76111500371E+02  0.00000000000E+00 0.  1.
         -6    2    1    2    0  503  0.56158656659E+02  0.52125230061E+01  0.68862410530E+02  0.19009621201E+03  0.16796896476E+03 0.  0.
        -24    2    3    3    0    0  0.30347654454E+02 -0.60591319105E+02  0.20600398900E+02  0.10437768870E+03  0.76668359724E+02 0.  0.
          6    2    1    2  501    0 -0.56158656659E+02 -0.52125230061E+01  0.50654133541E+03  0.53753053467E+03  0.17080394056E+03 0.  0.
         24    2    5    5    0    0 -0.40284796048E+02  0.20600560628E+02  0.49869501400E+03  0.50587694882E+03  0.71885481615E+02 0.  0.
          5    1    5    5  501    0 -0.15873860612E+02 -0.25813083634E+02  0.78463214077E+01  0.31653585848E+02  0.47000000000E+01 0. -1.
        -11    1    6    6    0    0  0.11699064394E+01  0.37140735745E+02  0.16026300210E+03  0.16451453667E+03  0.00000000000E+00 0.  1.
         12    1    6    6    0    0 -0.41454702487E+02 -0.16540175117E+02  0.33843201190E+03  0.34136241215E+03  0.00000000000E+00 0. -1.
         -5    1    3    3    0  503  0.25811002206E+02  0.65803842111E+02  0.48262011630E+02  0.85718523308E+02  0.47000000000E+01 0.  1.
         11    1    4    4    0    0 -0.14089366940E+02 -0.20207177835E+02  0.34837183588E+02  0.42666962127E+02  0.00000000000E+00 0. -1.
        -12    1    4    4    0    0  0.44437021393E+02 -0.40384141270E+02 -0.14236784688E+02  0.61710726577E+02  0.00000000000E+00 0.  1.
</event>
<event>
12    1  0.8297444E-002  0.2458240E+03  0.7818608E-02  0.1116693E+00
         21   -1    0    0  503  502  0.00000000000E+00  0.00000000000E+00  0.37144939332E+03  0.37144939332E+03  0.00000000000E+00 0.  1.
         21   -1    0    0  501  503 -0.00000000000E+00 -0.00000000000E+00 -0.16060242893E+03  0.16060242893E+03  0.00000000000E+00 0.  1.
          6    2    1    2  501    0 -0.91092362817E+02 -0.15167138324E+03  0.12355455466E+03  0.27118897471E+03  0.16424282319E+03 0.  0.
         24    2    3    3    0    0 -0.57386792662E+02 -0.74009919499E+02  0.25041562130E+01  0.12339635861E+03  0.80309889577E+02 0.  0.
         -6    2    1    2    0  502  0.91092362817E+02  0.15167138324E+03  0.87292409727E+02  0.26086284755E+03  0.17066761080E+03 0.  0.
        -24    2    5    5    0    0  0.13217818955E+03  0.92764149453E+02  0.75124783552E+02  0.18786799514E+03  0.59786196382E+02 0.  0.
          5    1    3    3  501    0 -0.33705570155E+02 -0.77661463736E+02  0.12105039845E+03  0.14779261610E+03  0.47000000000E+01 0. -1.
        -13    1    4    4    0    0 -0.74939331418E+02 -0.61216334024E+02 -0.11662274825E+02  0.97464617164E+02  0.00000000000E+00 0.  1.
         14    1    4    4    0    0  0.17552538757E+02 -0.12793585475E+02  0.14166431038E+02  0.25931741447E+02  0.00000000000E+00 0. -1.
         -5    1    5    5    0  502 -0.41085826737E+02  0.58907233782E+02  0.12167626176E+02  0.72994852402E+02  0.47000000000E+01 0.  1.
         11    1    6    6    0    0  0.62063048792E+02  0.87260517024E+01  0.24719674307E+02  0.67372311089E+02  0.00000000000E+00 0. -1.
        -12    1    6    6    0    0  0.70115140762E+02  0.84038097750E+02  0.50405109244E+02  0.12049568405E+03  0.00000000000E+00 0.  1.
</event>
<event>
12    1  0.8297444E-002  0.3327511E+03  0.7818608E-02  0.1070188E+00
         21   -1    0    0  501  502  0.00000000000E+00  0.00000000000E+00  0.45607383934E+03  0.45607383934E+03  0.00000000000E+00 0. -1.
         21   -1    0    0  502  503 -0.00000000000E+00 -0.00000000000E+00 -0.53076240972E+03  0.53076240972E+03  0.00000000000E+00 0.  1.
         -6    2    1    2    0  503 -0.21770793909E+03  0.18351165114E+03 -0.40195569829E+03  0.52181575092E+03  0.17219181652E+03 0.  0.
        -24    2    3    3    0    0 -0.20578380385E+03  0.20764313346E+03 -0.38681755977E+03  0.49057848667E+03  0.74677856439E+02 0.  0.
          6    2    1    2  501    0  0.21770793909E+03 -0.18351165114E+03  0.32726712791E+03  0.46502049814E+03  0.16753213971E+03 0.  0.
         24    2    5    5    0    0  0.14725285137E+03 -0.17941904491E+03  0.30415661800E+03  0.39061045527E+03  0.78680897181E+02 0.  0.
          5    1    5    5  501    0  0.70455087723E+02 -0.40926062355E+01  0.23110509903E+02  0.74410042870E+02  0.47000000000E+01 0. -1.
        -11    1    6    6    0    0  0.35787961050E+02 -0.51752535529E+02  0.14522179945E+03  0.15826709741E+03  0.00000000000E+00 0.  1.
         12    1    6    6    0    0  0.11146489032E+03 -0.12766650938E+03  0.15893481856E+03  0.23234335786E+03  0.00000000000E+00 0. -1.
         -5    1    3    3    0  503 -0.11924135247E+02 -0.24131482314E+02 -0.15138138517E+02  0.31237264250E+02  0.47000000000E+01 0.  1.
         11    1    4    4    0    0 -0.22045177714E+02  0.59983080440E+02 -0.10780669902E+03  0.12532455527E+03  0.00000000000E+00 0. -1.
        -12    1    4    4    0    0 -0.18373862613E+03  0.14766005302E+03 -0.27901086075E+03  0.36525393140E+03  0.00000000000E+00 0.  1.
</event>
<event>
12    1  0.8297444E-002  0.1951950E+03  0.7818608E-02  0.1153993E+00
         21   -1    0    0  501  502  0.00000000000E+00  0.00000000000E+00  0.79993058913E+02  0.79993058913E+02  0.00000000000E+00 0. -1.
         21   -1    0    0  502  503 -0.00000000000E+00 -0.00000000000E+00 -0.59679646164E+03  0.59679646164E+03  0.00000000000E+00 0. -1.
         -6    2    1    2    0  503 -0.32592011660E+02 -0.85067857987E+02 -0.41107838138E+03  0.45480104934E+03  0.17192957615E+03 0.  0.
        -24    2    3    3    0    0 -0.23810627297E+02  0.16698925112E+02 -0.13651782847E+03  0.16181781080E+03  0.81866271004E+02 0.  0.
          6    2    1    2  501    0  0.32592011660E+02  0.85067857987E+02 -0.10572502135E+03  0.22198847122E+03  0.17263348901E+03 0.  0.
         24    2    5    5    0    0  0.17875383157E+01  0.38799736205E+02 -0.13258222409E+03  0.16007680826E+03  0.80857427458E+02 0.  0.
          5    1    5    5  501    0  0.30804473344E+02  0.46268121782E+02  0.26857202739E+02  0.61911662958E+02  0.47000000000E+01 0. -1.
        -13    1    6    6    0    0 -0.22119219885E+02  0.53085727504E+02 -0.11036745565E+03  0.12445211778E+03  0.00000000000E+00 0.  1.
         14    1    6    6    0    0  0.23906758201E+02 -0.14285991299E+02 -0.22214768442E+02  0.35624690483E+02  0.00000000000E+00 0. -1.
         -5    1    3    3    0  503 -0.87813843632E+01 -0.10176678310E+03 -0.27456055291E+03  0.29298323854E+03  0.47000000000E+01 0.  1.
         13    1    4    4    0    0 -0.15178679498E+01  0.48201637309E+02 -0.78821242746E+02  0.92403950513E+02  0.00000000000E+00 0. -1.
        -14    1    4    4    0    0 -0.22292759347E+02 -0.31502712197E+02 -0.57696585724E+02  0.69413860282E+02  0.00000000000E+00 0.  1.
</event>
<event>
12    1  0.8297444E-002  0.2029040E+03  0.7818608E-02  0.1149000E+00
         21   -1    0    0  501  502  0.00000000000E+00  0.00000000000E+00  0.17670665381E+04  0.17670665381E+04  0.00000000000E+00 0. -1.
         21   -1    0    0  502  503 -0.00000000000E+00 -0.00000000000E+00 -0.37723537045E+02  0.37723537045E+02  0.00000000000E+00 0. -1.
         -6    2    1    2    0  503 -0.32869880988E+02  0.82872375154E+02  0.27914710406E+03  0.34046833338E+03  0.17334163000E+03 0.  0.
        -24    2    3    3    0    0 -0.68869636151E+02  0.10734981230E+03  0.20695503196E+03  0.25603544539E+03  0.80353936161E+02 0.  0.
          6    2    1    2  501    0  0.32869880988E+02 -0.82872375154E+02  0.14501958970E+04  0.14643217417E+04  0.18226838482E+03 0.  0.
         24    2    5    5    0    0  0.92290985233E+02 -0.73052578274E+02  0.98338366973E+03  0.99361690690E+03  0.79854934977E+02 0.  0.
          5    1    5    5  501    0 -0.59421104245E+02 -0.98197968804E+01  0.46681222724E+03  0.47070483484E+03  0.47000000000E+01 0. -1.
        -11    1    6    6    0    0  0.87211500147E+02 -0.21330948584E+02  0.66141032358E+03  0.66747619528E+03  0.00000000000E+00 0.  1.
         12    1    6    6    0    0  0.50794850852E+01 -0.51721629690E+02  0.32197334616E+03  0.32614071163E+03  0.00000000000E+00 0. -1.
         -5    1    3    3    0  503  0.35999755164E+02 -0.24477437143E+02  0.72192072103E+02  0.84432887996E+02  0.47000000000E+01 0.  1.
         13    1    4    4    0    0 -0.11606436568E+01  0.66152882174E+02  0.12840074233E+03  0.14444480449E+03  0.00000000000E+00 0. -1.
        -14    1    4    4    0    0 -0.67708992494E+02  0.41196930123E+02  0.78554289635E+02  0.11159064090E+03  0.00000000000E+00 0.  1.
</event>
<event>
12    1  0.8297444E-002  0.1926083E+03  0.7818608E-02  0.1156239E+00
         21   -1    0    0  501  502  0.00000000000E+00  0.00000000000E+00  0.78273759153E+02  0.78273759153E+02  0.00000000000E+00 0. -1.
         21   -1    0    0  502  503 -0.00000000000E+00 -0.00000000000E+00 -0.75306203088E+03  0.75306203088E+03  0.00000000000E+00 0.  1.
         -6    2    1    2    0  503  0.40033921206E+01  0.84351514451E+02 -0.83515224364E+02  0.20948229464E+03  0.17255965325E+03 0.  0.
        -24    2    3    3    0    0  0.59134352834E+02  0.23674264228E+02 -0.16899090150E+02  0.10374227922E+03  0.80122024304E+02 0.  0.
          6    2    1    2  501    0 -0.40033921206E+01 -0.84351514451E+02 -0.59127304736E+03  0.62185349539E+03  0.17310906403E+03 0.  0.
         24    2    5    5    0    0 -0.18584189805E+02  0.73236305231E+01 -0.40851332829E+03  0.41681657973E+03  0.80336256268E+02 0.  0.
          5    1    5    5  501    0  0.14580797684E+02 -0.91675144974E+02 -0.18275971907E+03  0.20503691565E+03  0.47000000000E+01 0. -1.
        -11    1    6    6    0    0  0.15595846417E+02  0.33303693243E+02 -0.13350815552E+03  0.13848030185E+03  0.00000000000E+00 0.  1.
         12    1    6    6    0    0 -0.34180036222E+02 -0.25980062720E+02 -0.27500517277E+03  0.27833627788E+03  0.00000000000E+00 0. -1.
         -5    1    3    3    0  503 -0.55130960713E+02  0.60677250223E+02 -0.66616134214E+02  0.10574001542E+03  0.47000000000E+01 0.  1.
         13    1    4    4    0    0  0.49459247013E+02  0.52384281512E+02 -0.12739846842E+02  0.73161696004E+02  0.00000000000E+00 0. -1.
        -14    1    4    4    0    0  0.96751058210E+01 -0.28710017284E+02 -0.41592433078E+01  0.30580583219E+02  0.00000000000E+00 0.  1.
</event>
<event>
12    1  0.8297444E-002  0.2169315E+03  0.7818608E-02  0.1136851E+00
         21   -1    0    0  501  502  0.00000000000E+00  0.00000000000E+00  0.37615878301E+03  0.37615878301E+03  0.00000000000E+00 0.  1.
         21   -1    0    0  502  503 -0.00000000000E+00 -0.00000000000E+00 -0.13090201548E+03  0.13090201548E+03  0.00000000000E+00 0.  1.
         -6    2    1    2    0  503 -0.12297653869E+03 -0.46896565782E+02  0.18534016826E+03  0.28532484860E+03  0.17244353948E+03 0.  0.
        -24    2    3    3    0    0 -0.13504523632E+03  0.10574178210E+02  0.13060665560E+03  0.20491099851E+03  0.81125764876E+02 0.  0.
          6    2    1    2  501    0  0.12297653869E+03  0.46896565782E+02  0.59916599269E+02  0.22173594990E+03  0.16809020096E+03 0.  0.
         24    2    5    5    0    0  0.18661173430E+02 -0.15288534434E+01 -0.16870393038E+02  0.83370315279E+02  0.79469632702E+02 0.  0.
          5    1    5    5  501    0  0.10431536526E+03  0.48425419226E+02  0.76786992307E+02  0.13836563462E+03  0.47000000000E+01 0. -1.
        -11    1    6    6    0    0  0.14197865091E+02  0.32658100058E+02  0.12843023511E+02  0.37855965520E+02  0.00000000000E+00 0.  1.
         12    1    6    6    0    0  0.44633083392E+01 -0.34186953501E+02 -0.29713416548E+02  0.45514349759E+02  0.00000000000E+00 0. -1.
         -5    1    3    3    0  503  0.12068697631E+02 -0.57470743993E+02  0.54733512651E+02  0.80413850080E+02  0.47000000000E+01 0.  1.
         11    1    4    4    0    0 -0.12630971548E+02  0.18261967378E+02  0.58635951851E+02  0.62699407846E+02  0.00000000000E+00 0. -1.
        -12    1    4    4    0    0 -0.12241426477E+03 -0.76877891679E+01  0.71970703753E+02  0.14221159067E+03  0.00000000000E+00 0.  1.
</event>
<event>
12    1  0.8297444E-002  0.1924503E+03  0.7818608E-02  0.1156612E+00
         21   -1    0    0  501  502  0.00000000000E+00  0.00000000000E+00  0.32948918243E+02  0.32948918243E+02  0.00000000000E+00 0.  1.
         21   -1    0    0  502  503 -0.00000000000E+00 -0.00000000000E+00 -0.15158890894E+04  0.15158890894E+04  0.00000000000E+00 0.  1.
         -6    2    1    2    0  503 -0.84070308212E+02  0.34884373624E+02 -0.11418421149E+04  0.11579466946E+04  0.16956531501E+03 0.  0.
        -24    2    3    3    0    0 -0.11060827501E+03  0.62935095543E+00 -0.64029651840E+03  0.65451075471E+03  0.78550047559E+02 0.  0.
          6    2    1    2  501    0  0.84070308212E+02 -0.34884373624E+02 -0.34109805631E+03  0.39089131304E+03  0.16781954102E+03 0.  0.
         24    2    5    5    0    0 -0.74637516485E+01 -0.12870784357E+01 -0.22609572748E+03  0.24004407908E+03  0.80277753800E+02 0.  0.
          5    1    5    5  501    0  0.91534059860E+02 -0.33597295188E+02 -0.11500232882E+03  0.15084723396E+03  0.47000000000E+01 0. -1.
        -11    1    6    6    0    0 -0.11435207079E+02  0.50719083628E+01  0.12526774018E+01  0.12572088770E+02  0.00000000000E+00 0.  1.
         12    1    6    6    0    0  0.39714554301E+01 -0.63589867985E+01 -0.22734840489E+03  0.22747199031E+03  0.00000000000E+00 0. -1.
         -5    1    3    3    0  503  0.26537966800E+02  0.34255022668E+02 -0.50154559648E+03  0.50343593993E+03  0.47000000000E+01 0.  1.
         11    1    4    4    0    0  0.10697945020E+02  0.79943435689E+01 -0.87476014240E+02  0.88489596134E+02  0.00000000000E+00 0. -1.
        -12    1    4    4    0    0 -0.12130622003E+03 -0.73649926135E+01 -0.55282050416E+03  0.56602115857E+03  0.00000000000E+00 0.  1.
</event>
<event>
12    1  0.8297444E-002  0.1801993E+03  0.7818608E-02  0.1168111E+00
         21   -1    0    0  501  502  0.00000000000E+00  0.00000000000E+00  0.60573690843E+03  0.60573690843E+03  0.00000000000E+00 0. -1.
         21   -1    0    0  502  503 -0.00000000000E+00 -0.00000000000E+00 -0.89316941466E+02  0.89316941466E+02  0.00000000000E+00 0. -1.
         -6    2    1    2    0  503 -0.51955056812E+02 -0.22632096678E+02  0.37478549448E+02  0.18405554224E+03  0.17105631012E+03 0.  0.
        -24    2    3    3    0    0 -0.17266269820E+02 -0.49700620064E+02 -0.31865641797E+02  0.10179544401E+03  0.81108677620E+02 0.  0.
          6    2    1    2  501    0  0.51955056812E+02  0.22632096678E+02  0.47894141752E+03  0.51099830766E+03  0.16888709036E+03 0.  0.
         24    2    5    5    0    0  0.31243707324E+02 -0.37071827310E+02  0.39532571737E+03  0.40608313312E+03  0.79187111107E+02 0.  0.
          5    1    5    5  501    0  0.20711349488E+02  0.59703923988E+02  0.83615700152E+02  0.10491517454E+03  0.47000000000E+01 0. -1.
        -13    1    6    6    0    0  0.99923766362E+01  0.16397440798E+02  0.26108289076E+02  0.32409356891E+02  0.00000000000E+00 0.  1.
         14    1    6    6    0    0  0.21251330688E+02 -0.53469268108E+02  0.36921742829E+03  0.37367377623E+03  0.00000000000E+00 0. -1.
         -5    1    3    3    0  503 -0.34688786992E+02  0.27068523386E+02  0.69344191245E+02  0.82260098229E+02  0.47000000000E+01 0.  1.
         13    1    4    4    0    0 -0.73586444027E+01  0.22456733421E+02 -0.10751010767E+02  0.25962256372E+02  0.00000000000E+00 0. -1.
        -14    1    4    4    0    0 -0.99076254175E+01 -0.72157353485E+02 -0.21114631030E+02  0.75833187636E+02  0.00000000000E+00 0.  1.
</event>
<event>
12    1  0.8297444E-002  0.1739722E+03  0.7818608E-02  0.1173796E+00
         21   -1    0    0  501  502  0.00000000000E+00  0.00000000000E+00  0.28397168571E+03  0.28397168571E+03  0.00000000000E+00 0. -1.
         21   -1    0    0  502  503 -0.00000000000E+00 -0.00000000000E+00 -0.14265939885E+03  0.14265939885E+03  0.00000000000E+00 0. -1.
         -6    2    1    2    0  503  0.90098066088E+00 -0.27007185060E+02 -0.36701646393E+02  0.17780142698E+03  0.17186080641E+03 0.  0.
        -24    2    3    3    0    0  0.16806153854E+02 -0.76055004136E+02 -0.52796548858E+02  0.12358151389E+03  0.80113073485E+02 0.  0.
          6    2    1    2  501    0 -0.90098066088E+00  0.27007185060E+02  0.17801393325E+03  0.24882965757E+03  0.17174701816E+03 0.  0.
         24    2    5    5    0    0 -0.31119753743E+02  0.77507231999E+02  0.11758052183E+03  0.16434465178E+03  0.78791975293E+02 0.  0.
          5    1    5    5  501    0  0.30218773082E+02 -0.50500046938E+02  0.60433411424E+02  0.84485005792E+02  0.47000000000E+01 0. -1.
        -11    1    6    6    0    0 -0.99137422086E+01 -0.14873114961E+02  0.83635851716E+01  0.19734269435E+02  0.00000000000E+00 0.  1.
         12    1    6    6    0    0 -0.21206011534E+02  0.92380346960E+02  0.10921693666E+03  0.14461038235E+03  0.00000000000E+00 0. -1.
         -5    1    3    3    0  503 -0.15905173193E+02  0.49047819075E+02  0.16094902465E+02  0.54219913092E+02  0.47000000000E+01 0.  1.
         11    1    4    4    0    0 -0.47211943143E+01 -0.27226330798E+02 -0.63413128816E+02  0.69172159650E+02  0.00000000000E+00 0. -1.
        -12    1    4    4    0    0  0.21527348168E+02 -0.48828673337E+02  0.10616579958E+02  0.54409354242E+02  0.00000000000E+00 0.  1.
</event>
<event>
12    1  0.8297444E-002  0.2002943E+03  0.7818608E-02  0.1149748E+00
         21   -1    0    0  501  502  0.00000000000E+00  0.00000000000E+00  0.38994171793E+03  0.38994171793E+03  0.00000000000E+00 0. -1.
         21   -1    0    0  502  503 -0.00000000000E+00 -0.00000000000E+00 -0.10356113003E+03  0.10356113003E+03  0.00000000000E+00 0. -1.
         -6    2    1    2    0  503 -0.98077279145E+02  0.92601213922E+01  0.11593275261E+03  0.23142648748E+03  0.17439298565E+03 0.  0.
        -24    2    3    3    0    0 -0.66032801602E+02 -0.58948510061E+02  0.94627445341E+02  0.15297094552E+03  0.81304975468E+02 0.  0.
          6    2    1    2  501    0  0.98077279145E+02 -0.92601213922E+01  0.17044783529E+03  0.26207636049E+03  0.17299321270E+03 0.  0.
         24    2    5    5    0    0  0.10540298114E+03  0.44920830309E+02  0.14658787071E+03  0.20223800033E+03  0.79275062344E+02 0.  0.
          5    1    5    5  501    0 -0.73257019961E+01 -0.54180951701E+02  0.23859964580E+02  0.59838360160E+02  0.47000000000E+01 0. -1.
        -11    1    6    6    0    0  0.38238656058E+01  0.34262767059E+02  0.55760950076E+02  0.65557933982E+02  0.00000000000E+00 0.  1.
         12    1    6    6    0    0  0.10157911554E+03  0.10658063250E+02  0.90826920632E+02  0.13668006635E+03  0.00000000000E+00 0. -1.
         -5    1    3    3    0  503 -0.32044477543E+02  0.68208631454E+02  0.21305307271E+02  0.78455541956E+02  0.47000000000E+01 0.  1.
         11    1    4    4    0    0  0.14242440196E+02 -0.32791575988E+02  0.27240207121E+02  0.44946228346E+02  0.00000000000E+00 0. -1.
        -12    1    4    4    0    0 -0.80275241798E+02 -0.26156934073E+02  0.67387238221E+02  0.10802471718E+03  0.00000000000E+00 0.  1.
</event>
<event>
12    1  0.8297444E-002  0.1818003E+03  0.7818608E-02  0.1166363E+00
         21   -1    0    0  503  502  0.00000000000E+00  0.00000000000E+00  0.29906841464E+03  0.29906841464E+03  0.00000000000E+00 0. -1.
         21   -1    0    0  501  503 -0.00000000000E+00 -0.00000000000E+00 -0.11420411109E+03  0.11420411109E+03  0.00000000000E+00 0. -1.
          6    2    1    2  501    0  0.51583868783E+02 -0.30112410253E+02  0.13281192833E+03  0.22416727830E+03  0.17042390554E+03 0.  0.
         24    2    3    3    0    0  0.97618558457E+02 -0.88640556057E+01  0.72995968894E+02  0.14561332084E+03  0.79163585655E+02 0.  0.
         -6    2    1    2    0  502 -0.51583868783E+02  0.30112410253E+02  0.52052375217E+02  0.18910524744E+03  0.17170815960E+03 0.  0.
        -24    2    5    5    0    0 -0.21407455152E+01 -0.37847710973E+02 -0.44025098913E+01  0.87752178579E+02  0.79019179537E+02 0.  0.
          5    1    3    3  501    0 -0.46034689674E+02 -0.21248354648E+02  0.59815959439E+02  0.78553957457E+02  0.47000000000E+01 0. -1.
        -11    1    4    4    0    0  0.74370866025E+01  0.50691491456E+01  0.50946865555E+02  0.51735767512E+02  0.00000000000E+00 0.  1.
         12    1    4    4    0    0  0.90181471854E+02 -0.13933204751E+02  0.22049103339E+02  0.93877553326E+02  0.00000000000E+00 0. -1.
         -5    1    5    5    0  502 -0.49443123268E+02  0.67960121226E+02  0.56454885109E+02  0.10135306886E+03  0.47000000000E+01 0.  1.
         13    1    6    6    0    0 -0.22870194331E+02  0.12482212967E+02  0.14881835934E+02  0.30005340692E+02  0.00000000000E+00 0. -1.
        -14    1    6    6    0    0  0.20729448816E+02 -0.50329923940E+02 -0.19284345825E+02  0.57746837887E+02  0.00000000000E+00 0.  1.
</event>
<event>
12    1  0.8297444E-002  0.1770785E+03  0.7818608E-02  0.1172086E+00
         21   -1    0    0  503  502  0.00000000000E+00  0.00000000000E+00  0.43595650057E+03  0.43595650057E+03  0.00000000000E+00 0.  1.
         21   -1    0    0  501  503 -0.00000000000E+00 -0.00000000000E+00 -0.11073063959E+03  0.11073063959E+03  0.00000000000E+00 0.  1.
          6    2    1    2  501    0 -0.30120048855E+01 -0.21887763934E+02 -0.55397394987E+01  0.17150361850E+03  0.16998428181E+03 0.  0.
         24    2    3    3    0    0  0.66261776987E+02 -0.18122746430E+02  0.16575993078E+02  0.98536311854E+02  0.68670111254E+02 0.  0.
         -6    2    1    2    0  502  0.30120048855E+01  0.21887763934E+02  0.33076560049E+03  0.37518352166E+03  0.17569475256E+03 0.  0.
        -24    2    5    5    0    0  0.25064337967E+02  0.75208821569E+02  0.16354832702E+03  0.19822830945E+03  0.79131659387E+02 0.  0.
          5    1    3    3  501    0 -0.69273781872E+02 -0.37650175038E+01 -0.22115732577E+02  0.72967306645E+02  0.47000000000E+01 0. -1.
        -13    1    4    4    0    0  0.16750196567E+02 -0.33825858348E+02  0.25881924798E+02  0.45767147707E+02  0.00000000000E+00 0.  1.
         14    1    4    4    0    0  0.49511580420E+02  0.15703111918E+02 -0.93059317199E+01  0.52769164147E+02  0.00000000000E+00 0. -1.
         -5    1    5    5    0  502 -0.22052333082E+02 -0.53321057635E+02  0.16721727347E+03  0.17695521221E+03  0.47000000000E+01 0.  1.
         11    1    6    6    0    0  0.13274713405E+02 -0.46353844494E+01 -0.18562511746E+01  0.14182752673E+02  0.00000000000E+00 0. -1.
        -12    1    6    6    0    0  0.11789624563E+02  0.79844206019E+02  0.16540457819E+03  0.18404555678E+03  0.00000000000E+00 0.  1.
</event>
<event>
12    1  0.8297444E-002  0.1997447E+03  0.7818608E-02  0.1150111E+00
         21   -1    0    0  501  502  0.00000000000E+00  0.00000000000E+00  0.74901189271E+03  0.74901189271E+03  0.00000000000E+00 0.  1.
         21   -1    0    0  502  503 -0.00000000000E+00 -0.00000000000E+00 -0.56689637417E+02  0.56689637417E+02  0.00000000000E+00 0.  1.
         -6    2    1    2    0  503 -0.86782480839E+02  0.50443776466E+02  0.24378338256E+03  0.31469737928E+03  0.17183809051E+03 0.  0.
        -24    2    3    3    0    0 -0.59416486172E+02  0.12789778759E+02  0.24353946674E+03  0.26791201082E+03  0.93656160562E+02 0.  0.
          6    2    1    2  501    0  0.86782480839E+02 -0.50443776466E+02  0.44853887273E+03  0.49100415085E+03  0.17269100217E+03 0.  0.
         24    2    5    5    0    0  0.45143950601E+01 -0.31678142322E+01  0.33089201740E+03  0.33978931324E+03  0.77050862449E+02 0.  0.
          5    1    5    5  501    0  0.82268085778E+02 -0.47275962234E+02  0.11764685534E+03  0.15121483761E+03  0.47000000000E+01 0. -1.
        -13    1    6    6    0    0  0.28191057414E+02 -0.12075003714E+02  0.29060434392E+03  0.29221811398E+03  0.00000000000E+00 0.  1.
         14    1    6    6    0    0 -0.23676662354E+02  0.89071894822E+01  0.40287673478E+02  0.47571199259E+02  0.00000000000E+00 0. -1.
         -5    1    3    3    0  503 -0.27365994667E+02  0.37653997707E+02  0.24391582348E+00  0.46785368464E+02  0.47000000000E+01 0.  1.
         11    1    4    4    0    0  0.20185929511E+02  0.23821993293E+02  0.64235091996E+02  0.71422028523E+02  0.00000000000E+00 0. -1.
        -12    1    4    4    0    0 -0.79602415683E+02 -0.11032214534E+02  0.17930437474E+03  0.19648998230E+03  0.00000000000E+00 0.  1.
</event>
<event>
12    1  0.8297444E-002  0.2461653E+03  0.7818608E-02  0.1115768E+00
         21   -1    0    0  503  502  0.00000000000E+00  0.00000000000E+00  0.19991974205E+03  0.19991974205E+03  0.00000000000E+00 0.  1.
         21   -1    0    0  501  503 -0.00000000000E+00 -0.00000000000E+00 -0.53930914750E+03  0.53930914750E+03  0.00000000000E+00 0. -1.
          6    2    1    2  501    0  0.90731018912E+02 -0.15120943049E+03 -0.41434654482E+03  0.48190437311E+03  0.17161688716E+03 0.  0.
         24    2    3    3    0    0  0.39233316174E+02 -0.13710993914E+03 -0.18748404854E+03  0.24879604794E+03  0.80067574635E+02 0.  0.
         -6    2    1    2    0  502 -0.90731018912E+02  0.15120943049E+03  0.74957139361E+02  0.25732451644E+03  0.17175833126E+03 0.  0.
        -24    2    5    5    0    0 -0.38591698908E+02  0.19470930886E+02  0.75444397175E+02  0.11556461947E+03  0.76124160645E+02 0.  0.
          5    1    3    3  501    0  0.51497702738E+02 -0.14099491354E+02 -0.22686249628E+03  0.23310832517E+03  0.47000000000E+01 0. -1.
        -13    1    4    4    0    0  0.49727637096E+02 -0.38016859354E+02 -0.57371901645E+02  0.84909684870E+02  0.00000000000E+00 0.  1.
         14    1    4    4    0    0 -0.10494320922E+02 -0.99093079785E+02 -0.13011214689E+03  0.16388636307E+03  0.00000000000E+00 0. -1.
         -5    1    5    5    0  502 -0.52139320003E+02  0.13173849961E+03 -0.48725781444E+00  0.14175989697E+03  0.47000000000E+01 0.  1.
         11    1    6    6    0    0  0.57666486881E+00 -0.20578595367E+02 -0.12102474212E+01  0.20622216866E+02  0.00000000000E+00 0. -1.
        -12    1    6    6    0    0 -0.39168363777E+02  0.40049526253E+02  0.76654644596E+02  0.94942402604E+02  0.00000000000E+00 0.  1.
</event>
<event>
12    1  0.8297444E-002  0.2023506E+03  0.7818608E-02  0.1147849E+00
         21   -1    0    0  501  502  0.00000000000E+00  0.00000000000E+00  0.45431799325E+03  0.45431799325E+03  0.00000000000E+00 0. -1.
         21   -1    0    0  502  503 -0.00000000000E+00 -0.00000000000E+00 -0.16714281728E+03  0.16714281728E+03  0.00000000000E+00 0.  1.
         -6    2    1    2    0  503  0.10513856765E+03  0.16817732127E+02 -0.67496549809E+02  0.21331087797E+03  0.17207205439E+03 0.  0.
        -24    2    3    3    0    0  0.39786694253E+02 -0.54977659629E+02 -0.38039034900E+02  0.11174670703E+03  0.80217418668E+02 0.  0.
          6    2    1    2  501    0 -0.10513856765E+03 -0.16817732127E+02  0.35467172578E+03  0.40814993256E+03  0.17163152350E+03 0.  0.
         24    2    5    5    0    0 -0.31627385770E+01 -0.59526289587E-02  0.24122848423E+03  0.25461438391E+03  0.81408230171E+02 0.  0.
          5    1    5    5  501    0 -0.10197582908E+03 -0.16811779499E+02  0.11344324155E+03  0.15353554865E+03  0.47000000000E+01 0. -1.
        -11    1    6    6    0    0  0.22861905391E+02  0.32417284237E+02  0.12726814753E+03  0.13330689559E+03  0.00000000000E+00 0.  1.
         12    1    6    6    0    0 -0.26024643968E+02 -0.32423236866E+02  0.11396033669E+03  0.12130748832E+03  0.00000000000E+00 0. -1.
         -5    1    3    3    0  503  0.65351873400E+02  0.71795391756E+02 -0.29457514908E+02  0.10156417094E+03  0.47000000000E+01 0.  1.
         11    1    4    4    0    0 -0.19786598604E+02  0.48355919164E+01 -0.41970503794E+01  0.20796818636E+02  0.00000000000E+00 0. -1.
        -12    1    4    4    0    0  0.59573292857E+02 -0.59813251545E+02 -0.33841984521E+02  0.90949888392E+02  0.00000000000E+00 0.  1.
</event>
<event>
12    1  0.8297444E-002  0.1938037E+03  0.7818608E-02  0.1155872E+00
         21   -1    0    0  501  502  0.00000000000E+00  0.00000000000E+00  0.67362571695E+03  0.67362571695E+03  0.00000000000E+00 0. -1.
         21   -1    0    0  502  503 -0.00000000000E+00 -0.00000000000E+00 -0.64219736778E+02  0.64219736778E+02  0.00000000000E+00 0. -1.
         -6    2    1    2    0  503 -0.53642382335E+02 -0.76253536413E+02  0.44895276390E+03  0.48899740078E+03  0.16990516991E+03 0.  0.
        -24    2    3    3    0    0  0.19744018752E+02 -0.33474076332E+02  0.13110211144E+03  0.15995823391E+03  0.82997186148E+02 0.  0.
          6    2    1    2  501    0  0.53642382335E+02  0.76253536413E+02  0.16045321628E+03  0.24884805295E+03  0.16579508993E+03 0.  0.
         24    2    5    5    0    0  0.73311034081E+02 -0.53082488554E+00  0.11115169609E+03  0.15538456332E+03  0.80092905302E+02 0.  0.
          5    1    5    5  501    0 -0.19668651746E+02  0.76784361298E+02  0.49301520182E+02  0.93463489629E+02  0.47000000000E+01 0. -1.
        -11    1    6    6    0    0  0.54027901266E+01 -0.30709688541E+02  0.17247378175E+02  0.35633511830E+02  0.00000000000E+00 0.  1.
         12    1    6    6    0    0  0.67908243955E+02  0.30178863656E+02  0.93904317919E+02  0.11975105149E+03  0.00000000000E+00 0. -1.
         -5    1    3    3    0  503 -0.73386401087E+02 -0.42779460081E+02  0.31785065245E+03  0.32903916687E+03  0.47000000000E+01 0.  1.
         11    1    4    4    0    0 -0.85895851703E+00 -0.54584122437E+02  0.11260659864E+03  0.12514156100E+03  0.00000000000E+00 0. -1.
        -12    1    4    4    0    0  0.20602977269E+02  0.21110046105E+02  0.18495512805E+02  0.34816672914E+02  0.00000000000E+00 0.  1.
</event>
<event>
12    1  0.8297444E-002  0.1927408E+03  0.7818608E-02  0.1156137E+00
         21   -1    0    0  503  502  0.00000000000E+00  0.00000000000E+00  0.44221518512E+02  0.44221518512E+02  0.00000000000E+00 0.  1.
         21   -1    0    0  501  503 -0.00000000000E+00 -0.00000000000E+00 -0.95910467708E+03  0.95910467708E+03  0.00000000000E+00 0.  1.
          6    2    1    2  501    0 -0.48918017743E+02 -0.71455841061E+02 -0.63657643574E+03  0.66511547025E+03  0.17219210361E+03 0.  0.
         24    2    3    3    0    0 -0.53922223832E+02 -0.10292231036E+03 -0.59947957211E+03  0.61598861345E+03  0.81028429087E+02 0.  0.
         -6    2    1    2    0  502  0.48918017743E+02  0.71455841061E+02 -0.27830672283E+03  0.33821072534E+03  0.17156034822E+03 0.  0.
        -24    2    5    5    0    0 -0.95111018930E+01 -0.16573997455E+02 -0.79009589538E+02  0.11259013269E+03  0.77902915793E+02 0.  0.
          5    1    3    3  501    0  0.50042060894E+01  0.31466469298E+02 -0.37096863624E+02  0.49126856804E+02  0.47000000000E+01 0. -1.
        -11    1    4    4    0    0 -0.29523386932E+02 -0.97013133956E+02 -0.32718739169E+03  0.34254162932E+03  0.00000000000E+00 0.  1.
         12    1    4    4    0    0 -0.24398836900E+02 -0.59091764035E+01 -0.27229218042E+03  0.27344698413E+03  0.00000000000E+00 0. -1.
         -5    1    5    5    0  502  0.58429119636E+02  0.88029838516E+02 -0.19929713329E+03  0.22562059265E+03  0.47000000000E+01 0.  1.
         13    1    6    6    0    0  0.93349026059E+01 -0.73864514189E+01 -0.88698299074E+02  0.89493509987E+02  0.00000000000E+00 0. -1.
        -14    1    6    6    0    0 -0.18846004499E+02 -0.91875460360E+01  0.96887095361E+01  0.23096622701E+02  0.00000000000E+00 0.  1.
</event>
<event>
12    1  0.8297444E-002  0.1864163E+03  0.7818608E-02  0.1161775E+00
         21   -1    0    0  503  502  0.00000000000E+00  0.00000000000E+00  0.36864895943E+03  0.36864895943E+03  0.00000000000E+00 0. -1.
         21   -1    0    0  501  503 -0.00000000000E+00 -0.00000000000E+00 -0.12389696311E+03  0.12389696311E+03  0.00000000000E+00 0. -1.
          6    2    1    2  501    0 -0.70931052635E+02  0.15704943733E+02  0.17145350540E+01  0.18624826726E+03  0.17148649493E+03 0.  0.
         24    2    3    3    0    0 -0.71806613070E+02 -0.49782916511E+02 -0.39055495594E+01  0.12034605337E+03  0.82664325959E+02 0.  0.
         -6    2    1    2    0  502  0.70931052635E+02 -0.15704943733E+02  0.24303746127E+03  0.30629765528E+03  0.17167756570E+03 0.  0.
        -24    2    5    5    0    0  0.88393649622E+02 -0.27412050562E+02  0.13639550076E+03  0.19750153226E+03  0.10880379041E+03 0.  0.
          5    1    3    3  501    0  0.87556043518E+00  0.65487860244E+02  0.56200846134E+01  0.65902213897E+02  0.47000000000E+01 0. -1.
        -13    1    4    4    0    0  0.13240713293E+02 -0.30226993970E+02 -0.19511070939E+01  0.33057442004E+02  0.00000000000E+00 0.  1.
         14    1    4    4    0    0 -0.85047326363E+02 -0.19555922542E+02 -0.19544424655E+01  0.87288611361E+02  0.00000000000E+00 0. -1.
         -5    1    5    5    0  502 -0.17462596987E+02  0.11707106829E+02  0.10664196051E+03  0.10879612302E+03  0.47000000000E+01 0.  1.
         11    1    6    6    0    0 -0.25983549455E+01  0.21342202230E+02  0.73590831193E+02  0.76667147333E+02  0.00000000000E+00 0. -1.
        -12    1    6    6    0    0  0.90992004567E+02 -0.48754252792E+02  0.62804669567E+02  0.12083438492E+03  0.00000000000E+00 0.  1.
</event>
<event>
12    1  0.8297444E-002  0.2317886E+03  0.7818608E-02  0.1125442E+00
         21   -1    0    0  503  502  0.00000000000E+00  0.00000000000E+00  0.12333759889E+03  0.12333759889E+03  0.00000000000E+00 0.  1.
         21   -1    0    0  501  503 -0.00000000000E+00 -0.00000000000E+00 -0.73017110822E+03  0.73017110822E+03  0.00000000000E+00 0. -1.
          6    2    1    2  501    0 -0.48585466678E+02  0.14793546596E+03 -0.57486983660E+03  0.61983973818E+03  0.17169892932E+03 0.  0.
         24    2    3    3    0    0 -0.86506068914E+02  0.12797798358E+03 -0.35085735657E+03  0.39171706419E+03  0.80496642668E+02 0.  0.
         -6    2    1    2    0  502  0.48585466678E+02 -0.14793546596E+03 -0.31963672725E+02  0.23366896893E+03  0.17127189205E+03 0.  0.
        -24    2    5    5    0    0  0.36455577147E+02 -0.20177123289E+02  0.26931481991E+02  0.92388901010E+02  0.77937660334E+02 0.  0.
          5    1    3    3  501    0  0.37920602236E+02  0.19957482381E+02 -0.22401248004E+03  0.22812267399E+03  0.47000000000E+01 0. -1.
        -13    1    4    4    0    0 -0.25020563315E+02  0.55448005087E+02 -0.58930902383E+02  0.84695697130E+02  0.00000000000E+00 0.  1.
         14    1    4    4    0    0 -0.61485505599E+02  0.72529978491E+02 -0.29192645419E+03  0.30702136706E+03  0.00000000000E+00 0. -1.
         -5    1    5    5    0  502  0.12129889531E+02 -0.12775834267E+03 -0.58895154716E+02  0.14128006792E+03  0.47000000000E+01 0.  1.
         11    1    6    6    0    0 -0.24752415979E+02 -0.42455710563E+01  0.84297476022E+01  0.26490896833E+02  0.00000000000E+00 0. -1.
        -12    1    6    6    0    0  0.61207993126E+02 -0.15931552232E+02  0.18501734389E+02  0.65898004177E+02  0.00000000000E+00 0.  1.
</event>
<event>
12    1  0.8297444E-002  0.1965219E+03  0.7818608E-02  0.1153678E+00
         21   -1    0    0  501  502  0.00000000000E+00  0.00000000000E+00  0.56269485124E+03  0.56269485124E+03  0.00000000000E+00 0.  1.
         21   -1    0    0  502  503 -0.00000000000E+00 -0.00000000000E+00 -0.13697671733E+03  0.13697671733E+03  0.00000000000E+00 0.  1.
         -6    2    1    2    0  503  0.89720001318E+02  0.23884359779E+02 -0.38204100892E+02  0.19584154758E+03  0.16814938939E+03 0.  0.
        -24    2    3    3    0    0 -0.15586675841E+02 -0.10150686098E+02 -0.18583880273E+02  0.83347442578E+02  0.79091432445E+02 0.  0.
          6    2    1    2  501    0 -0.89720001318E+02 -0.23884359779E+02  0.46392223480E+03  0.50383002099E+03  0.17320712696E+03 0.  0.
         24    2    5    5    0    0 -0.33743625642E+02 -0.76999241600E+02  0.23543430804E+03  0.26261773278E+03  0.80444046969E+02 0.  0.
          5    1    5    5  501    0 -0.55976375676E+02  0.53114881821E+02  0.22848792677E+03  0.24121228821E+03  0.47000000000E+01 0. -1.
        -11    1    6    6    0    0 -0.43511927872E+02 -0.15273476628E+02  0.14889395233E+03  0.15587166514E+03  0.00000000000E+00 0.  1.
         12    1    6    6    0    0  0.97683022297E+01 -0.61725764972E+02  0.86540355709E+02  0.10674606764E+03  0.00000000000E+00 0. -1.
         -5    1    3    3    0  503  0.10530667716E+03  0.34035045877E+02 -0.19620220619E+02  0.11249410500E+03  0.47000000000E+01 0.  1.
         11    1    4    4    0    0 -0.33179789261E+02  0.15453771538E+02  0.13193600746E+02  0.38907435932E+02  0.00000000000E+00 0. -1.
        -12    1    4    4    0    0  0.17593113421E+02 -0.25604457636E+02 -0.31777481019E+02  0.44440006645E+02  0.00000000000E+00 0.  1.
</event>
<event>
12    1  0.8297444E-002  0.3011237E+03  0.7818608E-02  0.1086331E+00
         21   -1    0    0  501  502  0.00000000000E+00  0.00000000000E+00  0.54555493474E+03  0.54555493474E+03  0.00000000000E+00 0. -1.
         21   -1    0    0  502  503 -0.00000000000E+00 -0.00000000000E+00 -0.16699585390E+03  0.16699585390E+03  0.00000000000E+00 0.  1.
         -6    2    1    2    0  503  0.40247703689E+02 -0.22650064261E+03  0.10800839267E+03  0.30773825893E+03  0.17353559971E+03 0.  0.
        -24    2    3    3    0    0  0.34858194985E+02 -0.11001372655E+03  0.12712617618E+03  0.18947656579E+03  0.80138570793E+02 0.  0.
          6    2    1    2  501    0 -0.40247703689E+02  0.22650064261E+03  0.27055068817E+03  0.40481252971E+03  0.19430154552E+03 0.  0.
         24    2    5    5    0    0 -0.72021298118E+02  0.44045037191E+02  0.97530089427E+02  0.15132125404E+03  0.79113658102E+02 0.  0.
          5    1    5    5  501    0  0.31773594429E+02  0.18245560541E+03  0.17302059874E+03  0.25349127567E+03  0.47000000000E+01 0. -1.
        -11    1    6    6    0    0 -0.60502633548E+02  0.46909008765E+02  0.11005614712E+03  0.13406483240E+03  0.00000000000E+00 0.  1.
         12    1    6    6    0    0 -0.11518664570E+02 -0.28639715741E+01 -0.12526057688E+02  0.17256421641E+02  0.00000000000E+00 0. -1.
         -5    1    3    3    0  503  0.53895087042E+01 -0.11648691606E+03 -0.19117783507E+02  0.11826169313E+03  0.47000000000E+01 0.  1.
         13    1    4    4    0    0 -0.15467374080E+02 -0.21696781298E+02 -0.79668081449E-01  0.26645756259E+02  0.00000000000E+00 0. -1.
        -14    1    4    4    0    0  0.50325569064E+02 -0.88316945250E+02  0.12720584426E+03  0.16283080954E+03  0.00000000000E+00 0.  1.
</event>
<event>
12    1  0.8297444E-002  0.1747190E+03  0.7818608E-02  0.1173638E+00
         21   -1    0    0  503  502  0.00000000000E+00  0.00000000000E+00  0.15550200795E+03  0.15550200795E+03  0.00000000000E+00 0. -1.
         21   -1    0    0  501  503 -0.00000000000E+00 -0.00000000000E+00 -0.80599658134E+03  0.80599658134E+03  0.00000000000E+00 0. -1.
          6    2    1    2  501    0  0.21486548031E+02 -0.22957064194E+02 -0.74486775636E+03  0.76508477429E+03  0.17186634006E+03 0.  0.
         24    2    3    3    0    0  0.52472126784E+02 -0.69098907198E+02 -0.50805239585E+03  0.52178910902E+03  0.81355112310E+02 0.  0.
         -6    2    1    2    0  502 -0.21486548031E+02  0.22957064194E+02  0.94373182970E+02  0.19641381500E+03  0.16936171502E+03 0.  0.
        -24    2    5    5    0    0 -0.35442919738E+02 -0.44825966432E+02  0.33271611977E+02  0.10397566524E+03  0.80239460201E+02 0.  0.
          5    1    3    3  501    0 -0.30985578753E+02  0.46141843004E+02 -0.23681536050E+03  0.24329566526E+03  0.47000000000E+01 0. -1.
        -11    1    4    4    0    0  0.10539976028E+02  0.57698139417E+01 -0.80189370939E+01  0.14445940596E+02  0.00000000000E+00 0.  1.
         12    1    4    4    0    0  0.41932150757E+02 -0.74868721139E+02 -0.50003345876E+03  0.50734316843E+03  0.00000000000E+00 0. -1.
         -5    1    5    5    0  502  0.13956371707E+02  0.67783030626E+02  0.61101570993E+02  0.92438149754E+02  0.47000000000E+01 0.  1.
         13    1    6    6    0    0 -0.55904326505E+02 -0.15214426968E+02  0.48992819845E+01  0.58144436311E+02  0.00000000000E+00 0. -1.
        -14    1    6    6    0    0  0.20461406767E+02 -0.29611539464E+02  0.28372329993E+02  0.45831228933E+02  0.00000000000E+00 0.  1.
</event>
<event>
12    1  0.8297444E-002  0.2283247E+03  0.7818608E-02  0.1127948E+00
         21   -1    0    0  501  502  0.00000000000E+00  0.00000000000E+00  0.47705480654E+02  0.47705480654E+02  0.00000000000E+00 0. -1.
         21   -1    0    0  502  503 -0.00000000000E+00 -0.00000000000E+00 -0.13760556080E+04  0.13760556080E+04  0.00000000000E+00 0.  1.
         -6    2    1    2    0  503  0.20801838798E+02  0.14752911311E+03 -0.98985617002E+03  0.10158481302E+04  0.17301627274E+03 0.  0.
        -24    2    3    3    0    0  0.10553657316E+01  0.61718749725E+02 -0.80035741432E+03  0.80683805851E+03  0.81273268343E+02 0.  0.
          6    2    1    2  501    0 -0.20801838798E+02 -0.14752911311E+03 -0.33849395731E+03  0.40791295842E+03  0.17209667864E+03 0.  0.
         24    2    5    5    0    0 -0.12013912846E+02 -0.10713374703E+03 -0.34087899261E+03  0.36623812625E+03  0.79434902021E+02 0.  0.
          5    1    5    5  501    0 -0.87879259518E+01 -0.40395366077E+02  0.23850353012E+01  0.41674832170E+02  0.47000000000E+01 0. -1.
        -13    1    6    6    0    0  0.81881612656E+01 -0.48942736074E+02 -0.25935445908E+03  0.26405903288E+03  0.00000000000E+00 0.  1.
         14    1    6    6    0    0 -0.20202074111E+02 -0.58191010957E+02 -0.81524533534E+02  0.10217909337E+03  0.00000000000E+00 0. -1.
         -5    1    3    3    0  503  0.19746473066E+02  0.85810363383E+02 -0.18949875571E+03  0.20901007171E+03  0.47000000000E+01 0.  1.
         13    1    4    4    0    0  0.20406281201E+02  0.37147592134E+02 -0.15404341429E+03  0.15976774831E+03  0.00000000000E+00 0. -1.
        -14    1    4    4    0    0 -0.19350915469E+02  0.24571157591E+02 -0.64631400002E+03  0.64707031020E+03  0.00000000000E+00 0.  1.
</event>
<event>
12    1  0.8297444E-002  0.2188565E+03  0.7818608E-02  0.1134772E+00
         21   -1    0    0  503  502  0.00000000000E+00  0.00000000000E+00  0.73608157211E+03  0.73608157211E+03  0.00000000000E+00 0. -1.
         21   -1    0    0  501  503 -0.00000000000E+00 -0.00000000000E+00 -0.77979121604E+02  0.77979121604E+02  0.00000000000E+00 0.  1.
          6    2    1    2  501    0 -0.28410609225E+02  0.13131664947E+03  0.16299619148E+03  0.27273974417E+03  0.17253400960E+03 0.  0.
         24    2    3    3    0    0 -0.33597515837E+02  0.47732714471E+01  0.98204044197E+02  0.13040126423E+03  0.78796435367E+02 0.  0.
         -6    2    1    2    0  502  0.28410609225E+02 -0.13131664947E+03  0.49510625902E+03  0.54132094954E+03  0.17276266247E+03 0.  0.
        -24    2    5    5    0    0  0.81959539346E+02 -0.69595420340E+02  0.34608360088E+03  0.37130083107E+03  0.80805691247E+02 0.  0.
          5    1    3    3  501    0  0.51869066125E+01  0.12654337802E+03  0.64792147284E+02  0.14233847994E+03  0.47000000000E+01 0. -1.
        -11    1    4    4    0    0 -0.48536997843E+02  0.41529309450E+01  0.23264299312E+02  0.53984392352E+02  0.00000000000E+00 0.  1.
         12    1    4    4    0    0  0.14939482006E+02  0.62034050212E+00  0.74939744885E+02  0.76416871883E+02  0.00000000000E+00 0. -1.
         -5    1    5    5    0  502 -0.53548930121E+02 -0.61721229129E+02  0.14902265814E+03  0.17002011846E+03  0.47000000000E+01 0.  1.
         11    1    6    6    0    0  0.61833522541E+02 -0.41274450090E+02  0.11057605025E+03  0.13324424051E+03  0.00000000000E+00 0. -1.
        -12    1    6    6    0    0  0.20126016805E+02 -0.28320970250E+02  0.23550755063E+03  0.23805659057E+03  0.00000000000E+00 0.  1.
</event>
<event>
12    1  0.8297444E-002  0.2340155E+03  0.7818608E-02  0.1124004E+00
         21   -1    0    0  501  502  0.00000000000E+00  0.00000000000E+00  0.12297490163E+03  0.12297490163E+03  0.00000000000E+00 0. -1.
         21   -1    0    0  502  503 -0.00000000000E+00 -0.00000000000E+00 -0.87891369859E+03  0.87891369859E+03  0.00000000000E+00 0. -1.
         -6    2    1    2    0  503  0.15407885432E+03 -0.29845066522E+02 -0.73090684987E+03  0.76745557594E+03  0.17358633735E+03 0.  0.
        -24    2    3    3    0    0  0.88565204654E+02  0.47695679169E+02 -0.34476235016E+03  0.36816336441E+03  0.81021673145E+02 0.  0.
          6    2    1    2  501    0 -0.15407885432E+03  0.29845066522E+02 -0.25031947091E+02  0.23443302428E+03  0.17234042809E+03 0.  0.
         24    2    5    5    0    0 -0.15462655942E+03 -0.94463771980E+01 -0.57120246887E+02  0.18348337743E+03  0.80030121007E+02 0.  0.
          5    1    5    5  501    0  0.54770510493E+00  0.39291443720E+02  0.32088299795E+02  0.50949646851E+02  0.47000000000E+01 0. -1.
        -13    1    6    6    0    0 -0.70793009685E+02  0.31343002766E+02 -0.44784037881E+02  0.89440729489E+02  0.00000000000E+00 0.  1.
         14    1    6    6    0    0 -0.83833549737E+02 -0.40789379964E+02 -0.12336209006E+02  0.94042647942E+02  0.00000000000E+00 0. -1.
         -5    1    3    3    0  503  0.65513649663E+02 -0.77540745691E+02 -0.38614449971E+03  0.39929221153E+03  0.47000000000E+01 0.  1.
         11    1    4    4    0    0  0.51156291195E+02 -0.76652809611E+01 -0.22650077217E+03  0.23233235344E+03  0.00000000000E+00 0. -1.
        -12    1    4    4    0    0  0.37408913459E+02  0.55360960130E+02 -0.11826157799E+03  0.13583101097E+03  0.00000000000E+00 0.  1.
</event>
<event>
12    1  0.8297444E-002  0.2125963E+03  0.7818608E-02  0.1139541E+00
         21   -1    0    0  503  502  0.00000000000E+00  0.00000000000E+00  0.17724305686E+04  0.17724305686E+04  0.00000000000E+00 0. -1.
         21   -1    0    0  501  503 -0.00000000000E+00 -0.00000000000E+00 -0.26693962239E+02  0.26693962239E+02  0.00000000000E+00 0.  1.
          6    2    1    2  501    0  0.10521099323E+03  0.60358759789E+02  0.68173845408E+03  0.71409492293E+03  0.17450417244E+03 0.  0.
         24    2    3    3    0    0  0.19611311152E+02 -0.15578734535E+02  0.42370927786E+03  0.43179197502E+03  0.79293486825E+02 0.  0.
         -6    2    1    2    0  502 -0.10521099323E+03 -0.60358759789E+02  0.10639981523E+04  0.10850296079E+04  0.17459853667E+03 0.  0.
        -24    2    5    5    0    0 -0.12928520525E+03 -0.14048481843E+02  0.90682475060E+03  0.91934986345E+03  0.77207635608E+02 0.  0.
          5    1    3    3  501    0  0.85599682081E+02  0.75937494324E+02  0.25802917623E+03  0.28230294791E+03  0.47000000000E+01 0. -1.
        -13    1    4    4    0    0 -0.26917445730E+02 -0.23726259396E+02  0.17657786903E+03  0.18018664795E+03  0.00000000000E+00 0.  1.
         14    1    4    4    0    0  0.46528756882E+02  0.81475248614E+01  0.24713140882E+03  0.25160532706E+03  0.00000000000E+00 0. -1.
         -5    1    5    5    0  502  0.24074212014E+02 -0.46310277946E+02  0.15717340170E+03  0.16567974448E+03  0.47000000000E+01 0.  1.
         11    1    6    6    0    0 -0.11385827681E+03 -0.28383682940E+02  0.57465278241E+03  0.58651100671E+03  0.00000000000E+00 0. -1.
        -12    1    6    6    0    0 -0.15426928441E+02  0.14335201097E+02  0.33217196818E+03  0.33283885674E+03  0.00000000000E+00 0.  1.
</event>
<event>
12    1  0.8297444E-002  0.2658033E+03  0.7818608E-02  0.1103796E+00
         21   -1    0    0  503  502  0.00000000000E+00  0.00000000000E+00  0.31813563829E+03  0.31813563829E+03  0.00000000000E+00 0.  1.
         21   -1    0    0  501  503 -0.00000000000E+00 -0.00000000000E+00 -0.22504499458E+03  0.22504499458E+03  0.00000000000E+00 0.  1.
          6    2    1    2  501    0 -0.18397120850E+03  0.84768500237E+02  0.80372767639E+02  0.27768901814E+03  0.17210550494E+03 0.  0.
         24    2    3    3    0    0 -0.18811443841E+03  0.10996339763E+03  0.47148373335E+02  0.23552387157E+03  0.75957450024E+02 0.  0.
         -6    2    1    2    0  502  0.18397120850E+03 -0.84768500237E+02  0.12717876075E+02  0.26549161473E+03  0.17115183005E+03 0.  0.
        -24    2    5    5    0    0  0.23517263570E+02 -0.41032398284E+02 -0.21180302998E+02  0.95699119011E+02  0.80454936142E+02 0.  0.
          5    1    3    3  501    0  0.41432299119E+01 -0.25194897390E+02  0.33224394304E+02  0.42165146572E+02  0.47000000000E+01 0. -1.
        -11    1    4    4    0    0 -0.17685287177E+03  0.83035076844E+02  0.21296618182E+02  0.19653322413E+03  0.00000000000E+00 0.  1.
         12    1    4    4    0    0 -0.11261566641E+02  0.26928320783E+02  0.25851755154E+02  0.38990647442E+02  0.00000000000E+00 0. -1.
         -5    1    5    5    0  502  0.16045394493E+03 -0.43736101953E+02  0.33898179072E+02  0.16979249572E+03  0.47000000000E+01 0.  1.
         13    1    6    6    0    0  0.14008106529E+02  0.23859319148E+02 -0.80263561325E+01  0.28808272275E+02  0.00000000000E+00 0. -1.
        -14    1    6    6    0    0  0.95091570409E+01 -0.64891717432E+02 -0.13153946865E+02  0.66890846736E+02  0.00000000000E+00 0.  1.
</event>
<event>
12    1  0.8297444E-002  0.1893753E+03  0.7818608E-02  0.1159044E+00
         21   -1    0    0  503  502  0.00000000000E+00  0.00000000000E+00  0.50164854832E+03  0.50164854832E+03  0.00000000000E+00 0. -1.
         21   -1    0    0  501  503 -0.00000000000E+00 -0.00000000000E+00 -0.92134230650E+02  0.92134230650E+02  0.00000000000E+00 0. -1.
          6    2    1    2  501    0  0.27524732006E+02  0.74827618831E+02  0.64152919347E+02  0.19994653535E+03  0.17177379464E+03 0.  0.
         24    2    3    3    0    0  0.49013042147E+00 -0.25719738049E+01 -0.19213473813E+02  0.82926827045E+02  0.80627822684E+02 0.  0.
         -6    2    1    2    0  502 -0.27524732006E+02 -0.74827618831E+02  0.34536139832E+03  0.39383624362E+03  0.17168490885E+03 0.  0.
        -24    2    5    5    0    0 -0.67271728560E+02 -0.74508016490E+02  0.16418536521E+03  0.20829171836E+03  0.79697401479E+02 0.  0.
          5    1    3    3  501    0  0.27034601585E+02  0.77399592636E+02  0.83366393160E+02  0.11701970830E+03  0.47000000000E+01 0. -1.
        -13    1    4    4    0    0 -0.32754269363E+02 -0.10271996671E+02  0.12312561456E+02  0.36468551475E+02  0.00000000000E+00 0.  1.
         14    1    4    4    0    0  0.33244399784E+02  0.77000228663E+01 -0.31526035268E+02  0.46458275570E+02  0.00000000000E+00 0. -1.
         -5    1    5    5    0  502  0.39746996554E+02 -0.31960234117E+00  0.18117603311E+03  0.18554452526E+03  0.47000000000E+01 0.  1.
         13    1    6    6    0    0 -0.43680889662E+02 -0.65184933243E+02  0.16521785825E+03  0.18290444590E+03  0.00000000000E+00 0. -1.
        -14    1    6    6    0    0 -0.23590838898E+02 -0.93230832472E+01 -0.10324930410E+01  0.25387272461E+02  0.00000000000E+00 0.  1.
</event>
<event>
12    1  0.8297444E-002  0.1835863E+03  0.7818608E-02  0.1164920E+00
         21   -1    0    0  503  502  0.00000000000E+00  0.00000000000E+00  0.14485988001E+03  0.14485988001E+03  0.00000000000E+00 0.  1.
         21   -1    0    0  501  503 -0.00000000000E+00 -0.00000000000E+00 -0.23908236686E+03  0.23908236686E+03  0.00000000000E+00 0. -1.
          6    2    1    2  501    0 -0.58316878410E+02  0.12580528795E+02 -0.89532702361E+01  0.18152000846E+03  0.17120229091E+03 0.  0.
         24    2    3    3    0    0  0.32923853754E+02 -0.10178621360E+02  0.61881820962E+01  0.86156474027E+02  0.78721407128E+02 0.  0.
         -6    2    1    2    0  502  0.58316878410E+02 -0.12580528795E+02 -0.85269216617E+02  0.20242223840E+03  0.17362256560E+03 0.  0.
        -24    2    5    5    0    0  0.75907955567E+02 -0.52124088912E+02 -0.97989502218E+02  0.15706769279E+03  0.81174991278E+02 0.  0.
          5    1    3    3  501    0 -0.91240732164E+02  0.22759150156E+02 -0.15141452332E+02  0.95363534437E+02  0.47000000000E+01 0. -1.
        -13    1    4    4    0    0  0.23809119629E+02  0.17654089543E+02 -0.28251742928E+02  0.40947552229E+02  0.00000000000E+00 0.  1.
         14    1    4    4    0    0  0.91147341254E+01 -0.27832710904E+02  0.34439925024E+02  0.45208921798E+02  0.00000000000E+00 0. -1.
         -5    1    5    5    0  502 -0.17591077157E+02  0.39543560117E+02  0.12720285601E+02  0.45354545616E+02  0.47000000000E+01 0.  1.
         11    1    6    6    0    0  0.40626400225E+02  0.14081559453E+02 -0.57561740394E+02  0.71848094401E+02  0.00000000000E+00 0. -1.
        -12    1    6    6    0    0  0.35281555341E+02 -0.66205648365E+02 -0.40427761824E+02  0.85219598385E+02  0.00000000000E+00 0.  1.
</event>
<event>
12    1  0.8297444E-002  0.1778281E+03  0.7818608E-02  0.1170475E+00
         21   -1    0    0  501  502  0.00000000000E+00  0.00000000000E+00  0.73584813202E+02  0.73584813202E+02  0.00000000000E+00 0.  1.
         21   -1    0    0  502  503 -0.00000000000E+00 -0.00000000000E+00 -0.55515164745E+03  0.55515164745E+03  0.00000000000E+00 0.  1.
         -6    2    1    2    0  503 -0.29448307414E+02  0.30655910686E+02 -0.39220463374E+03  0.42971774835E+03  0.17036983549E+03 0.  0.
        -24    2    3    3    0    0 -0.78221192993E+02 -0.69271860376E+01 -0.22829350622E+03  0.25456001585E+03  0.80723823925E+02 0.  0.
          6    2    1    2  501    0  0.29448307414E+02 -0.30655910686E+02 -0.89362200504E+02  0.19901871230E+03  0.17267268834E+03 0.  0.
         24    2    5    5    0    0  0.47317849942E+02 -0.71419491366E+02 -0.23641786113E+02  0.11950611627E+03  0.79894024216E+02 0.  0.
          5    1    5    5  501    0 -0.17869542529E+02  0.40763580680E+02 -0.65720414391E+02  0.79512596032E+02  0.47000000000E+01 0. -1.
        -13    1    6    6    0    0 -0.43872246117E+01 -0.44483546270E+02 -0.38884799545E+02  0.59245770011E+02  0.00000000000E+00 0.  1.
         14    1    6    6    0    0  0.51705074554E+02 -0.26935945096E+02  0.15243013432E+02  0.60260346260E+02  0.00000000000E+00 0. -1.
         -5    1    3    3    0  503  0.48772885579E+02  0.37583096723E+02 -0.16391112752E+03  0.17515773249E+03  0.47000000000E+01 0.  1.
         13    1    4    4    0    0 -0.75263673187E+02 -0.15911174155E+02 -0.10121934328E+03  0.12713434398E+03  0.00000000000E+00 0. -1.
        -14    1    4    4    0    0 -0.29575198060E+01  0.89839881176E+01 -0.12707416294E+03  0.12742567188E+03  0.00000000000E+00 0.  1.
</event>
<event>
12    1  0.8297444E-002  0.2031983E+03  0.7818608E-02  0.1147222E+00
         21   -1    0    0  501  502  0.00000000000E+00  0.00000000000E+00  0.50694258655E+03  0.50694258655E+03  0.00000000000E+00 0. -1.
         21   -1    0    0  502  503 -0.00000000000E+00 -0.00000000000E+00 -0.11464912167E+03  0.11464912167E+03  0.00000000000E+00 0.  1.
         -6    2    1    2    0  503  0.93747661213E+02 -0.54117780759E+02  0.28405136243E+02  0.20517411411E+03  0.17196571506E+03 0.  0.
        -24    2    3    3    0    0  0.33557345782E+02 -0.86242303407E+02 -0.17824933435E+02  0.12262613794E+03  0.78457702622E+02 0.  0.
          6    2    1    2  501    0 -0.93747661213E+02  0.54117780759E+02  0.36388832863E+03  0.41641759411E+03  0.17108927143E+03 0.  0.
         24    2    5    5    0    0 -0.12338434965E+03  0.48913146647E+02  0.34981578826E+03  0.38286840768E+03  0.81246158240E+02 0.  0.
          5    1    5    5  501    0  0.29636688439E+02  0.52046341118E+01  0.14072540364E+02  0.33549186431E+02  0.47000000000E+01 0. -1.
        -11    1    6    6    0    0 -0.79920263313E+02  0.49240565100E+02  0.13973444744E+03  0.16833774841E+03  0.00000000000E+00 0.  1.
         12    1    6    6    0    0 -0.43464086339E+02 -0.32741845343E+00  0.21008134083E+03  0.21453065927E+03  0.00000000000E+00 0. -1.
         -5    1    3    3    0  503  0.60190315430E+02  0.32124522648E+02  0.46230069678E+02  0.82547976168E+02  0.47000000000E+01 0.  1.
         13    1    4    4    0    0  0.16883074043E+02 -0.37186875243E+02  0.31124677890E+02  0.51348295524E+02  0.00000000000E+00 0. -1.
        -14    1    4    4    0    0  0.16674271740E+02 -0.49055428164E+02 -0.48949611325E+02  0.71277842414E+02  0.00000000000E+00 0.  1.
</event>
<event>
12    1  0.8297444E-002  0.1859331E+03  0.7818608E-02  0.1162264E+00
         21   -1    0    0  501  502  0.00000000000E+00  0.00000000000E+00  0.30048579856E+03  0.30048579856E+03  0.00000000000E+00 0. -1.
         21   -1    0    0  502  503 -0.00000000000E+00 -0.00000000000E+00 -0.16603586440E+03  0.16603586440E+03  0.00000000000E+00 0. -1.
         -6    2    1    2    0  503  0.42204914029E+02  0.56993156546E+02 -0.62269866059E+02  0.19608325631E+03  0.17187679461E+03 0.  0.
        -24    2    3    3    0    0  0.39119832190E+02  0.96437600583E+02 -0.88225065072E+02  0.14853176578E+03  0.58715000321E+02 0.  0.
          6    2    1    2  501    0 -0.42204914029E+02 -0.56993156546E+02  0.19671980022E+03  0.27043840665E+03  0.17148987531E+03 0.  0.
         24    2    5    5    0    0  0.39890673454E+02 -0.42951078855E+02  0.13074981941E+03  0.16408525062E+03  0.79952443321E+02 0.  0.
          5    1    5    5  501    0 -0.82095587483E+02 -0.14042077691E+02  0.65969980810E+02  0.10635315603E+03  0.47000000000E+01 0. -1.
        -11    1    6    6    0    0  0.13081989957E+02 -0.50166070563E+02  0.30692729834E+02  0.60247960643E+02  0.00000000000E+00 0.  1.
         12    1    6    6    0    0  0.26808683497E+02  0.72149917080E+01  0.10005708957E+03  0.10383728998E+03  0.00000000000E+00 0. -1.
         -5    1    3    3    0  503  0.30850818387E+01 -0.39444444037E+02  0.25955199013E+02  0.47551490525E+02  0.47000000000E+01 0.  1.
         11    1    4    4    0    0  0.52250134839E+02  0.81279745336E+02 -0.59421187154E+02  0.11343434698E+03  0.00000000000E+00 0. -1.
        -12    1    4    4    0    0 -0.13130302649E+02  0.15157855247E+02 -0.28803877917E+02  0.35097418800E+02  0.00000000000E+00 0.  1.
</event>
<event>
12    1  0.8297444E-002  0.1731661E+03  0.7818608E-02  0.1174946E+00
         21   -1    0    0  501  502  0.00000000000E+00  0.00000000000E+00  0.43161399664E+03  0.43161399664E+03  0.00000000000E+00 0. -1.
         21   -1    0    0  502  503 -0.00000000000E+00 -0.00000000000E+00 -0.12193418843E+03  0.12193418843E+03  0.00000000000E+00 0. -1.
         -6    2    1    2    0  503 -0.68856149713E+01 -0.24306336721E+02 -0.27315878237E+02  0.17530729066E+03  0.17131339485E+03 0.  0.
        -24    2    3    3    0    0  0.28665105592E+02 -0.39501885016E+01  0.42312204373E+02  0.94385189899E+02  0.79252439493E+02 0.  0.
          6    2    1    2  501    0  0.68856149713E+01  0.24306336721E+02  0.33699568645E+03  0.37824089441E+03  0.16988782130E+03 0.  0.
         24    2    5    5    0    0 -0.34653062446E+02 -0.30634296019E+02  0.13127721914E+03  0.16124754743E+03  0.81411107691E+02 0.  0.
          5    1    5    5  501    0  0.41538677417E+02  0.54940632740E+02  0.20571846730E+03  0.21699334699E+03  0.47000000000E+01 0. -1.
        -13    1    6    6    0    0  0.23898853076E+02 -0.24920159747E+02  0.54612041656E+02  0.64611489954E+02  0.00000000000E+00 0.  1.
         14    1    6    6    0    0 -0.58551915522E+02 -0.57141362724E+01  0.76665177487E+02  0.96636057472E+02  0.00000000000E+00 0. -1.
         -5    1    3    3    0  503 -0.35550720563E+02 -0.20356148219E+02 -0.69628082610E+02  0.80922100756E+02  0.47000000000E+01 0.  1.
         11    1    4    4    0    0  0.17488158170E+02 -0.15278974988E+02 -0.19644696316E+02  0.30417048611E+02  0.00000000000E+00 0. -1.
        -12    1    4    4    0    0  0.11176947421E+02  0.11328786486E+02  0.61956900689E+02  0.63968141288E+02  0.00000000000E+00 0.  1.
</event>
<event>
12    1  0.8297444E-002  0.2114968E+03  0.7818608E-02  0.1140455E+00
         21   -1    0    0  503  502  0.00000000000E+00  0.00000000000E+00  0.20162060193E+03  0.20162060193E+03  0.00000000000E+00 0.  1.
         21   -1    0    0  501  503 -0.00000000000E+00 -0.00000000000E+00 -0.26142825433E+03  0.26142825433E+03  0.00000000000E+00 0. -1.
          6    2    1    2  501    0  0.12158755535E+03 -0.16561185534E+02 -0.12041758393E+03  0.24337477610E+03  0.17225876071E+03 0.  0.
         24    2    3    3    0    0 -0.18708993085E+01 -0.43761966483E+01 -0.15672882101E+02  0.80943231928E+02  0.79268633143E+02 0.  0.
         -6    2    1    2    0  502 -0.12158755535E+03  0.16561185534E+02  0.60609931535E+02  0.21967408016E+03  0.17182936656E+03 0.  0.
        -24    2    5    5    0    0 -0.10991766889E+03  0.25849516626E+02  0.10444693419E+03  0.17313128108E+03  0.79468150728E+02 0.  0.
          5    1    3    3  501    0  0.12345845466E+03 -0.12184988885E+02 -0.10474470183E+03  0.16243154417E+03  0.47000000000E+01 0. -1.
        -13    1    4    4    0    0 -0.26700436220E+02 -0.31127227880E+02 -0.17064056038E+02  0.44418460332E+02  0.00000000000E+00 0.  1.
         14    1    4    4    0    0  0.24829536912E+02  0.26751031231E+02  0.13911739378E+01  0.36524771596E+02  0.00000000000E+00 0. -1.
         -5    1    5    5    0  502 -0.11669886456E+02 -0.92883310920E+01 -0.43837002659E+02  0.46542799083E+02  0.47000000000E+01 0.  1.
         11    1    6    6    0    0 -0.21227942219E+02 -0.27328042629E+02  0.23953901725E+02  0.42086064827E+02  0.00000000000E+00 0. -1.
        -12    1    6    6    0    0 -0.88689726674E+02  0.53177559255E+02  0.80493032469E+02  0.13104521625E+03  0.00000000000E+00 0.  1.
</event>
<event>
12    1  0.8297444E-002  0.2518453E+03  0.7818608E-02  0.1112891E+00
         21   -1    0    0  503  502  0.00000000000E+00  0.00000000000E+00  0.61383122505E+03  0.61383122505E+03  0.00000000000E+00 0.  1.
         21   -1    0    0  501  503 -0.00000000000E+00 -0.00000000000E+00 -0.11621025135E+03  0.11621025135E+03  0.00000000000E+00 0. -1.
          6    2    1    2  501    0  0.76034099591E+02  0.16689802845E+03  0.11645069734E+03  0.27318609057E+03  0.16563133449E+03 0.  0.
         24    2    3    3    0    0  0.61081240137E+02  0.19045667670E+03  0.11359523125E+03  0.24474594992E+03  0.83618418093E+02 0.  0.
         -6    2    1    2    0  502 -0.76034099591E+02 -0.16689802845E+03  0.38117027636E+03  0.45685538584E+03  0.17259758917E+03 0.  0.
        -24    2    5    5    0    0 -0.53949054697E+02 -0.45361109949E+02  0.10911334202E+03  0.15803096031E+03  0.89999623400E+02 0.  0.
          5    1    3    3  501    0  0.14952859454E+02 -0.23558648249E+02  0.28554660896E+01  0.28440140643E+02  0.47000000000E+01 0. -1.
        -11    1    4    4    0    0 -0.11429936961E+02  0.66216320329E+02  0.63409782587E+02  0.92390719580E+02  0.00000000000E+00 0.  1.
         12    1    4    4    0    0  0.72511177097E+02  0.12424035637E+03  0.50185448666E+02  0.15235523034E+03  0.00000000000E+00 0. -1.
         -5    1    5    5    0  502 -0.22085044894E+02 -0.12153691850E+03  0.27205693434E+03  0.29882442553E+03  0.47000000000E+01 0.  1.
         11    1    6    6    0    0 -0.41268287666E+02 -0.72419063410E+02  0.70250225208E+02  0.10900773575E+03  0.00000000000E+00 0. -1.
        -12    1    6    6    0    0 -0.12680767031E+02  0.27057953461E+02  0.38863116812E+02  0.49023224561E+02  0.00000000000E+00 0.  1.
</event>
<event>
12    1  0.8297444E-002  0.1882984E+03  0.7818608E-02  0.1160084E+00
         21   -1    0    0  503  502  0.00000000000E+00  0.00000000000E+00  0.51196831810E+03  0.51196831810E+03  0.00000000000E+00 0. -1.
         21   -1    0    0  501  503 -0.00000000000E+00 -0.00000000000E+00 -0.38550423187E+03  0.38550423187E+03  0.00000000000E+00 0. -1.
          6    2    1    2  501    0  0.34238155895E+02  0.67408236966E+02 -0.34327415893E+03  0.39152704965E+03  0.17245335802E+03 0.  0.
         24    2    3    3    0    0  0.88281012322E+02  0.26326481090E+02 -0.19640840447E+03  0.22966296831E+03  0.75380348394E+02 0.  0.
         -6    2    1    2    0  502 -0.34238155895E+02 -0.67408236966E+02  0.46973824516E+03  0.50594550032E+03  0.17207762376E+03 0.  0.
        -24    2    5    5    0    0 -0.16228656970E+02  0.19713240221E+02  0.29153257823E+03  0.30671236160E+03  0.91810933129E+02 0.  0.
          5    1    3    3  501    0 -0.54042856427E+02  0.41081755876E+02 -0.14686575446E+03  0.16186408135E+03  0.47000000000E+01 0. -1.
        -11    1    4    4    0    0 -0.12736270729E+02  0.10771631935E+02 -0.31661649211E+02  0.35786878564E+02  0.00000000000E+00 0.  1.
         12    1    4    4    0    0  0.10101728305E+03  0.15554849155E+02 -0.16474675525E+03  0.19387608974E+03  0.00000000000E+00 0. -1.
         -5    1    5    5    0  502 -0.18009498925E+02 -0.87121477187E+02  0.17820566693E+03  0.19923313872E+03  0.47000000000E+01 0.  1.
         11    1    6    6    0    0  0.14152762575E+02 -0.31876321414E+02  0.12359883861E+03  0.12842536144E+03  0.00000000000E+00 0. -1.
        -12    1    6    6    0    0 -0.30381419545E+02  0.51589561635E+02  0.16793373962E+03  0.17828700016E+03  0.00000000000E+00 0.  1.
</event>
<event>
12    1  0.8297444E-002  0.2187902E+03  0.7818608E-02  0.1134939E+00
         21   -1    0    0  501  502  0.00000000000E+00  0.00000000000E+00  0.55661207742E+02  0.55661207742E+02  0.00000000000E+00 0.  1.
         21   -1    0    0  502  503 -0.00000000000E+00 -0.00000000000E+00 -0.10712099998E+04  0.10712099998E+04  0.00000000000E+00 0.  1.
         -6    2    1    2    0  503  0.10682411122E+03 -0.81885156903E+02 -0.76055375424E+03  0.79139824503E+03  0.17248941847E+03 0.  0.
        -24    2    3    3    0    0 -0.12309770027E+02 -0.26315629987E+02 -0.20051476187E+03  0.21611864608E+03  0.75213407308E+02 0.  0.
          6    2    1    2  501    0 -0.10682411122E+03  0.81885156903E+02 -0.25499503780E+03  0.33547296250E+03  0.17147323291E+03 0.  0.
         24    2    5    5    0    0 -0.31761672627E+02  0.24833780969E+02 -0.36619824120E+02  0.97567407427E+02  0.80949780409E+02 0.  0.
          5    1    5    5  501    0 -0.75062438591E+02  0.57051375934E+02 -0.21837521368E+03  0.23790555507E+03  0.47000000000E+01 0. -1.
        -13    1    6    6    0    0 -0.70629814995E+01  0.27812389373E+02  0.20499676553E+02  0.35265442703E+02  0.00000000000E+00 0.  1.
         14    1    6    6    0    0 -0.24698691127E+02 -0.29786084033E+01 -0.57119500673E+02  0.62301964724E+02  0.00000000000E+00 0. -1.
         -5    1    3    3    0  503  0.11913388124E+03 -0.55569526916E+02 -0.56003899237E+03  0.57527959894E+03  0.47000000000E+01 0.  1.
         11    1    4    4    0    0 -0.55612682076E+01 -0.27276648358E+02 -0.17296557140E+02  0.32773680578E+02  0.00000000000E+00 0. -1.
        -12    1    4    4    0    0 -0.67485018199E+01  0.96101837078E+00 -0.18321820473E+03  0.18334496550E+03  0.00000000000E+00 0.  1.
</event>
<event>
12    1  0.8297444E-002  0.1819514E+03  0.7818608E-02  0.1165999E+00
         21   -1    0    0  503  502  0.00000000000E+00  0.00000000000E+00  0.61184839799E+03  0.61184839799E+03  0.00000000000E+00 0. -1.
         21   -1    0    0  501  503 -0.00000000000E+00 -0.00000000000E+00 -0.12902626574E+03  0.12902626574E+03  0.00000000000E+00 0. -1.
          6    2    1    2  501    0  0.56255950199E+02  0.18759275522E+02 -0.41111474734E+02  0.18624619340E+03  0.17169988017E+03 0.  0.
         24    2    3    3    0    0  0.98293366441E+01 -0.52808582307E+02 -0.19654204892E+02  0.98155937703E+02  0.79768026880E+02 0.  0.
         -6    2    1    2    0  502 -0.56255950199E+02 -0.18759275522E+02  0.52393360699E+03  0.55462847032E+03  0.17201649110E+03 0.  0.
        -24    2    5    5    0    0 -0.10498752306E+03 -0.94572698601E+01  0.37223656147E+03  0.39495575155E+03  0.79486904795E+02 0.  0.
          5    1    3    3  501    0  0.46426613555E+02  0.71567857829E+02 -0.21457269842E+02  0.88090255701E+02  0.47000000000E+01 0. -1.
        -11    1    4    4    0    0 -0.20753869075E+02  0.39878133226E+01 -0.25807033351E+02  0.33356089505E+02  0.00000000000E+00 0.  1.
         12    1    4    4    0    0  0.30583205719E+02 -0.56796395629E+02  0.61528284591E+01  0.64799848198E+02  0.00000000000E+00 0. -1.
         -5    1    5    5    0  502  0.48731572858E+02 -0.93020056621E+01  0.15169704552E+03  0.15967271878E+03  0.47000000000E+01 0.  1.
         11    1    6    6    0    0  0.26247026140E+01 -0.35564068650E+01  0.12706449462E+03  0.12714135002E+03  0.00000000000E+00 0. -1.
        -12    1    6    6    0    0 -0.10761222567E+03 -0.59008629951E+01  0.24517206685E+03  0.26781440152E+03  0.00000000000E+00 0.  1.
</event>
<event>
12    1  0.8297444E-002  0.1919090E+03  0.7818608E-02  0.1157532E+00
         21   -1    0    0  501  502  0.00000000000E+00  0.00000000000E+00  0.71750829381E+02  0.71750829381E+02  0.00000000000E+00 0. -1.
         21   -1    0    0  502  503 -0.00000000000E+00 -0.00000000000E+00 -0.57051357261E+03  0.57051357261E+03  0.00000000000E+00 0. -1.
         -6    2    1    2    0  503  0.62520639282E+02  0.57109573322E+02 -0.35698261059E+03  0.40366289090E+03  0.16833541377E+03 0.  0.
        -24    2    3    3    0    0  0.87697652314E+02 -0.32342972099E+00 -0.27811447316E+03  0.30279314853E+03  0.81517162568E+02 0.  0.
          6    2    1    2  501    0 -0.62520639282E+02 -0.57109573322E+02 -0.14178013264E+03  0.23860151109E+03  0.17221713439E+03 0.  0.
         24    2    5    5    0    0 -0.19697738746E+02 -0.46432216924E+02 -0.16414353356E+03  0.18890223090E+03  0.78721036252E+02 0.  0.
          5    1    5    5  501    0 -0.42822900536E+02 -0.10677356398E+02  0.22363400922E+02  0.49699280184E+02  0.47000000000E+01 0. -1.
        -13    1    6    6    0    0  0.12726359391E+02  0.11640049661E+02 -0.76616844771E+01  0.18872000119E+02  0.00000000000E+00 0.  1.
         14    1    6    6    0    0 -0.32424098137E+02 -0.58072266585E+02 -0.15648184909E+03  0.17003023078E+03  0.00000000000E+00 0. -1.
         -5    1    3    3    0  503 -0.25177013031E+02  0.57433003043E+02 -0.78868137432E+02  0.10086974237E+03  0.47000000000E+01 0.  1.
         13    1    4    4    0    0  0.84082735504E+02  0.21515308142E+02 -0.15447107739E+03  0.17718388370E+03  0.00000000000E+00 0. -1.
        -14    1    4    4    0    0  0.36149168097E+01 -0.21838737863E+02 -0.12364339577E+03  0.12560926483E+03  0.00000000000E+00 0.  1.
</event>
<event>
12    1  0.8297444E-002  0.2052862E+03  0.7818608E-02  0.1145580E+00
         21   -1    0    0  503  502  0.00000000000E+00  0.00000000000E+00  0.22084030624E+04  0.22084030624E+04  0.00000000000E+00 0.  1.
         21   -1    0    0  501  503 -0.00000000000E+00 -0.00000000000E+00 -0.21629375549E+02  0.21629375549E+02  0.00000000000E+00 0. -1.
          6    2    1    2  501    0 -0.33528872456E+02 -0.10607249877E+03  0.70059043729E+03  0.72973811369E+03  0.17121680251E+03 0.  0.
         24    2    3    3    0    0 -0.75158059530E+02 -0.58890045376E+02  0.30645501413E+03  0.33058401448E+03  0.79084407990E+02 0.  0.
         -6    2    1    2    0  502  0.33528872456E+02  0.10607249877E+03  0.14861832496E+04  0.15002943243E+04  0.17253071568E+03 0.  0.
        -24    2    5    5    0    0 -0.21713751750E+02  0.32834016847E+02  0.10732657481E+04  0.10772830055E+04  0.84200643007E+02 0.  0.
          5    1    3    3  501    0  0.41629187074E+02 -0.47182453392E+02  0.39413542316E+03  0.39915409921E+03  0.47000000000E+01 0. -1.
        -13    1    4    4    0    0 -0.26292149957E+02  0.15429857084E+02  0.12275096019E+03  0.12647986349E+03  0.00000000000E+00 0.  1.
         14    1    4    4    0    0 -0.48865909573E+02 -0.74319902460E+02  0.18370405394E+03  0.20410415099E+03  0.00000000000E+00 0. -1.
         -5    1    5    5    0  502  0.55242624205E+02  0.73238481921E+02  0.41291750152E+03  0.42301131879E+03  0.47000000000E+01 0.  1.
         11    1    6    6    0    0 -0.39621718001E+02 -0.12100716010E+02  0.35929939560E+03  0.36167991864E+03  0.00000000000E+00 0. -1.
        -12    1    6    6    0    0  0.17907966251E+02  0.44934732857E+02  0.71396635248E+03  0.71560308688E+03  0.00000000000E+00 0.  1.
</event>
<event>
12    1  0.8297444E-002  0.2525707E+03  0.7818608E-02  0.1111829E+00
         21   -1    0    0  501  502  0.00000000000E+00  0.00000000000E+00  0.99586218593E+02  0.99586218593E+02  0.00000000000E+00 0.  1.
         21   -1    0    0  502  503 -0.00000000000E+00 -0.00000000000E+00 -0.12407788130E+04  0.12407788130E+04  0.00000000000E+00 0. -1.
         -6    2    1    2    0  503 -0.56576755539E+02 -0.17586281435E+03 -0.10370686856E+04  0.10671732120E+04  0.17093433512E+03 0.  0.
        -24    2    3    3    0    0 -0.60653739227E+02 -0.19874232845E+03 -0.99059195057E+03  0.10149978264E+04  0.75965688404E+02 0.  0.
          6    2    1    2  501    0  0.56576755539E+02  0.17586281435E+03 -0.10412390883E+03  0.27319181967E+03  0.17223043634E+03 0.  0.
         24    2    5    5    0    0  0.78825939564E+02  0.95817003220E+02 -0.11732714212E+03  0.18893760055E+03  0.80853767819E+02 0.  0.
          5    1    5    5  501    0 -0.22249184025E+02  0.80045811133E+02  0.13203233282E+02  0.84254219115E+02  0.47000000000E+01 0. -1.
        -11    1    6    6    0    0 -0.12275554402E+02 -0.32772248729E+01 -0.51283998672E+01  0.13701457000E+02  0.00000000000E+00 0.  1.
         12    1    6    6    0    0  0.91101493965E+02  0.99094228093E+02 -0.11219874225E+03  0.17523614355E+03  0.00000000000E+00 0. -1.
         -5    1    3    3    0  503  0.40769836880E+01  0.22879514096E+02 -0.46476735039E+02  0.52175385587E+02  0.47000000000E+01 0.  1.
         13    1    4    4    0    0  0.17001898131E+02 -0.58477174169E+02 -0.27831183119E+03  0.28489668271E+03  0.00000000000E+00 0. -1.
        -14    1    4    4    0    0 -0.77655637358E+02 -0.14026515428E+03 -0.71228011938E+03  0.73010114367E+03  0.00000000000E+00 0.  1.
</event>
<event>
12    1  0.8297444E-002  0.1871775E+03  0.7818608E-02  0.1161756E+00
         21   -1    0    0  501  502  0.00000000000E+00  0.00000000000E+00  0.96950214912E+02  0.96950214912E+02  0.00000000000E+00 0. -1.
         21   -1    0    0  502  503 -0.00000000000E+00 -0.00000000000E+00 -0.36102195495E+03  0.36102195495E+03  0.00000000000E+00 0.  1.
         -6    2    1    2    0  503 -0.22362907236E+02  0.70658170537E+02 -0.10449851931E+03  0.21437203616E+03  0.17188005314E+03 0.  0.
        -24    2    3    3    0    0  0.44714656721E+02  0.66351821189E+02 -0.92058995989E+02  0.14585360090E+03  0.79977805989E+02 0.  0.
          6    2    1    2  501    0  0.22362907236E+02 -0.70658170537E+02 -0.15957322073E+03  0.24360013370E+03  0.16847770084E+03 0.  0.
         24    2    5    5    0    0  0.11203115236E+01 -0.10862116088E+03 -0.14410920684E+03  0.19719256714E+03  0.79483541384E+02 0.  0.
          5    1    5    5  501    0  0.21242595712E+02  0.37962990344E+02 -0.15464013893E+02  0.46407566561E+02  0.47000000000E+01 0. -1.
        -13    1    6    6    0    0  0.12577797676E+02 -0.44426427005E+02 -0.11842449947E+03  0.12710731877E+03  0.00000000000E+00 0.  1.
         14    1    6    6    0    0 -0.11457486152E+02 -0.64194733876E+02 -0.25684707370E+02  0.70085248370E+02  0.00000000000E+00 0. -1.
         -5    1    3    3    0  503 -0.67077563957E+02  0.43063493479E+01 -0.12439523320E+02  0.68518435268E+02  0.47000000000E+01 0.  1.
         13    1    4    4    0    0  0.35095667758E+02  0.31053478336E+02 -0.75982867201E-01  0.46861820126E+02  0.00000000000E+00 0. -1.
        -14    1    4    4    0    0  0.96189889628E+01  0.35298342854E+02 -0.91983013122E+02  0.98991780769E+02  0.00000000000E+00 0.  1.
</event>
<event>
12    1  0.8297444E-002  0.2359690E+03  0.7818608E-02  0.1123054E+00
         21   -1    0    0  503  502  0.00000000000E+00  0.00000000000E+00  0.59781621744E+02  0.59781621744E+02  0.00000000000E+00 0. -1.
         21   -1    0    0  501  503 -0.00000000000E+00 -0.00000000000E+00 -0.10103177503E+04  0.10103177503E+04  0.00000000000E+00 0. -1.
          6    2    1    2  501    0 -0.70036065280E+02  0.14300098824E+03 -0.63918015948E+03  0.68134621351E+03  0.17414664314E+03 0.  0.
         24    2    3    3    0    0 -0.22758925970E+02  0.70470702235E+01 -0.15030415459E+03  0.17169885122E+03  0.79508029254E+02 0.  0.
         -6    2    1    2    0  502  0.70036065280E+02 -0.14300098824E+03 -0.31135596904E+03  0.38875315850E+03  0.16980031126E+03 0.  0.
        -24    2    5    5    0    0  0.20881122584E+02 -0.15120940994E+03 -0.18640753068E+03  0.25415082261E+03  0.80898493207E+02 0.  0.
          5    1    3    3  501    0 -0.47277139310E+02  0.13595391802E+03 -0.48887600489E+03  0.50964736229E+03  0.47000000000E+01 0. -1.
        -11    1    4    4    0    0 -0.52568739001E+02  0.79472608378E+01 -0.94914939824E+02  0.10879097884E+03  0.00000000000E+00 0.  1.
         12    1    4    4    0    0  0.29809813031E+02 -0.90019061429E+00 -0.55389214763E+02  0.62907872386E+02  0.00000000000E+00 0. -1.
         -5    1    5    5    0  502  0.49154942696E+02  0.82084216951E+01 -0.12494843836E+03  0.13460233589E+03  0.47000000000E+01 0.  1.
         13    1    6    6    0    0  0.31053512651E+02 -0.58932725409E+02 -0.31805698822E+02  0.73817269318E+02  0.00000000000E+00 0. -1.
        -14    1    6    6    0    0 -0.10172390067E+02 -0.92276684531E+02 -0.15460183186E+03  0.18033355329E+03  0.00000000000E+00 0.  1.
</event>
<event>
12    1  0.8297444E-002  0.1760111E+03  0.7818608E-02  0.1172544E+00
         21   -1    0    0  503  502  0.00000000000E+00  0.00000000000E+00  0.93796580681E+03  0.93796580681E+03  0.00000000000E+00 0. -1.
         21   -1    0    0  501  503 -0.00000000000E+00 -0.00000000000E+00 -0.73947303927E+02  0.73947303927E+02  0.00000000000E+00 0. -1.
          6    2    1    2  501    0 -0.63746359756E+01  0.30641860370E+02  0.54626128843E+02  0.18429305576E+03  0.17320611091E+03 0.  0.
         24    2    3    3    0    0 -0.59245415550E+02 -0.12701664302E+02  0.21836019252E+00  0.96792908595E+02  0.75481573470E+02 0.  0.
         -6    2    1    2    0  502  0.63746359756E+01 -0.30641860370E+02  0.80939237404E+03  0.82762005498E+03  0.16988048935E+03 0.  0.
        -24    2    5    5    0    0  0.18917813662E+02  0.40106957812E+02  0.33411190907E+03  0.34691605358E+03  0.82179855865E+02 0.  0.
          5    1    3    3  501    0  0.52870779574E+02  0.43343524672E+02  0.54407768651E+02  0.87500147162E+02  0.47000000000E+01 0. -1.
        -13    1    4    4    0    0 -0.72097981836E+02 -0.23200008161E+02  0.11666424732E+02  0.76632009171E+02  0.00000000000E+00 0.  1.
         14    1    4    4    0    0  0.12852566286E+02  0.10498343859E+02 -0.11448064539E+02  0.20160899425E+02  0.00000000000E+00 0. -1.
         -5    1    5    5    0  502 -0.12543177687E+02 -0.70748818182E+02  0.47528046498E+03  0.48070400141E+03  0.47000000000E+01 0.  1.
         13    1    6    6    0    0  0.29241024168E+02  0.46759347988E+02  0.32903870531E+03  0.33362845159E+03  0.00000000000E+00 0. -1.
        -14    1    6    6    0    0 -0.10323210505E+02 -0.66523901765E+01  0.50732037584E+01  0.13287601987E+02  0.00000000000E+00 0.  1.
</event>
<event>
12    1  0.8297444E-002  0.2304803E+03  0.7818608E-02  0.1126542E+00
         21   -1    0    0  501  502  0.00000000000E+00  0.00000000000E+00  0.46316587965E+03  0.46316587965E+03  0.00000000000E+00 0.  1.
         21   -1    0    0  502  503 -0.00000000000E+00 -0.00000000000E+00 -0.15834938223E+03  0.15834938223E+03  0.00000000000E+00 0.  1.
         -6    2    1    2    0  503  0.95291645785E+02  0.11928621669E+03 -0.11696258485E+02  0.23077683870E+03  0.17265991883E+03 0.  0.
        -24    2    3    3    0    0  0.20794527757E+02 -0.70978521716E+01 -0.47335085792E+01  0.83830170344E+02  0.80760754493E+02 0.  0.
          6    2    1    2  501    0 -0.95291645785E+02 -0.11928621669E+03  0.31651275591E+03  0.39073842318E+03  0.17084054393E+03 0.  0.
         24    2    5    5    0    0 -0.12884564167E+03 -0.64235923344E+02  0.24233879246E+03  0.29235004841E+03  0.77543582887E+02 0.  0.
          5    1    5    5  501    0  0.33553995885E+02 -0.55050293342E+02  0.74173963444E+02  0.98388374770E+02  0.47000000000E+01 0. -1.
        -13    1    6    6    0    0 -0.10966519202E+03 -0.22711645670E+02  0.13326703661E+03  0.17407577729E+03  0.00000000000E+00 0.  1.
         14    1    6    6    0    0 -0.19180449646E+02 -0.41524277675E+02  0.10907175585E+03  0.11827427112E+03  0.00000000000E+00 0. -1.
         -5    1    3    3    0  503  0.74497118028E+02  0.12638406886E+03 -0.69627499061E+01  0.14694666836E+03  0.47000000000E+01 0.  1.
         13    1    4    4    0    0 -0.14453879119E+01  0.28446538839E+02  0.20318222645E+02  0.34987496189E+02  0.00000000000E+00 0. -1.
        -14    1    4    4    0    0  0.22239915669E+02 -0.35544391011E+02 -0.25051731224E+02  0.48842674155E+02  0.00000000000E+00 0.  1.
</event>
<event>
12    1  0.8297444E-002  0.1769397E+03  0.7818608E-02  0.1171042E+00
         21   -1    0    0  503  502  0.00000000000E+00  0.00000000000E+00  0.27613084084E+03  0.27613084084E+03  0.00000000000E+00 0.  1.
         21   -1    0    0  501  503 -0.00000000000E+00 -0.00000000000E+00 -0.15411653858E+03  0.15411653858E+03  0.00000000000E+00 0.  1.
          6    2    1    2  501    0 -0.37214684158E+02 -0.19240826886E+02 -0.50567710982E+02  0.18307897807E+03  0.17089668423E+03 0.  0.
         24    2    3    3    0    0 -0.49468214004E+02  0.43231439140E+02 -0.54722884670E+02  0.11910798085E+03  0.82921984236E+02 0.  0.
         -6    2    1    2    0  502  0.37214684158E+02  0.19240826886E+02  0.17258201324E+03  0.24716840136E+03  0.17190847914E+03 0.  0.
        -24    2    5    5    0    0  0.89136043513E+02 -0.42016779589E+01  0.10005221145E+03  0.15482100974E+03  0.77435209624E+02 0.  0.
          5    1    3    3  501    0  0.12253529846E+02 -0.62472266025E+02  0.41551736881E+01  0.63970997213E+02  0.47000000000E+01 0. -1.
        -13    1    4    4    0    0  0.57413126207E+01  0.25046020532E+01  0.18043248713E+02  0.19099594922E+02  0.00000000000E+00 0.  1.
         14    1    4    4    0    0 -0.55209526624E+02  0.40726837087E+02 -0.72766133383E+02  0.10000838593E+03  0.00000000000E+00 0. -1.
         -5    1    5    5    0  502 -0.51921359356E+02  0.23442504844E+02  0.72529801794E+02  0.92347391620E+02  0.47000000000E+01 0.  1.
         13    1    6    6    0    0  0.20407978745E+02  0.26124343040E+02  0.62703464452E+02  0.70927366721E+02  0.00000000000E+00 0. -1.
        -14    1    6    6    0    0  0.68728064769E+02 -0.30326020998E+02  0.37348746997E+02  0.83893643017E+02  0.00000000000E+00 0.  1.
</event>
<event>
12    1  0.8297444E-002  0.1772654E+03  0.7818608E-02  0.1172017E+00
         21   -1    0    0  501  502  0.00000000000E+00  0.00000000000E+00  0.18681992988E+03  0.18681992988E+03  0.00000000000E+00 0. -1.
         21   -1    0    0  502  503 -0.00000000000E+00 -0.00000000000E+00 -0.16800878729E+03  0.16800878729E+03  0.00000000000E+00 0. -1.
         -6    2    1    2    0  503 -0.17035521735E+02 -0.11452476963E+02 -0.22737806723E+02  0.17871770722E+03  0.17607283377E+03 0.  0.
        -24    2    3    3    0    0 -0.24923028746E+02  0.51362440869E+02  0.20220264849E+02  0.10206646729E+03  0.82155017750E+02 0.  0.
          6    2    1    2  501    0  0.17035521735E+02  0.11452476963E+02  0.41548949307E+02  0.17611100995E+03  0.16990410356E+03 0.  0.
         24    2    5    5    0    0  0.75805009221E+02  0.25650968460E+02  0.22935590179E+02  0.11267602782E+03  0.75930720672E+02 0.  0.
          5    1    5    5  501    0 -0.58769487486E+02 -0.14198491497E+02  0.18613359129E+02  0.63434982133E+02  0.47000000000E+01 0. -1.
        -11    1    6    6    0    0  0.20648283717E+02 -0.66084599137E+01  0.40908811209E+02  0.46298533426E+02  0.00000000000E+00 0.  1.
         12    1    6    6    0    0  0.55156725504E+02  0.32259428374E+02 -0.17973221030E+02  0.66377494391E+02  0.00000000000E+00 0. -1.
         -5    1    3    3    0  503  0.78875070113E+01 -0.62814917832E+02 -0.42958071572E+02  0.76651239927E+02  0.47000000000E+01 0.  1.
         13    1    4    4    0    0 -0.25993126521E+02 -0.17355998012E+02  0.79882210792E+01  0.32259649244E+02  0.00000000000E+00 0. -1.
        -14    1    4    4    0    0  0.10700977756E+01  0.68718438881E+02  0.12232043770E+02  0.69806818050E+02  0.00000000000E+00 0.  1.
</event>
<event>
12    1  0.8297444E-002  0.2547037E+03  0.7818608E-02  0.1110472E+00
         21   -1    0    0  501  502  0.00000000000E+00  0.00000000000E+00  0.81787872932E+02  0.81787872932E+02  0.00000000000E+00 0. -1.
         21   -1    0    0  502  503 -0.00000000000E+00 -0.00000000000E+00 -0.90719754202E+03  0.90719754202E+03  0.00000000000E+00 0.  1.
         -6    2    1    2    0  503 -0.16740524283E+03 -0.83505901198E+02 -0.59008749080E+03  0.64271084765E+03  0.17284743568E+03 0.  0.
        -24    2    3    3    0    0 -0.69699546990E+02  0.97645832437E+01 -0.15598046036E+03  0.18804966594E+03  0.77970500264E+02 0.  0.
          6    2    1    2  501    0  0.16740524283E+03  0.83505901198E+02 -0.23532217828E+03  0.34627456730E+03  0.17184818156E+03 0.  0.
         24    2    5    5    0    0  0.52978590841E+02 -0.17368312328E+02 -0.12349039428E+03  0.15707228520E+03  0.79457132707E+02 0.  0.
          5    1    5    5  501    0  0.11442665199E+03  0.10087421353E+03 -0.11183178400E+03  0.18920228210E+03  0.47000000000E+01 0. -1.
        -13    1    6    6    0    0 -0.80060498051E+01 -0.30326323687E+02 -0.23320806532E+02  0.39085070796E+02  0.00000000000E+00 0.  1.
         14    1    6    6    0    0  0.60984640647E+02  0.12958011359E+02 -0.10016958775E+03  0.11798721440E+03  0.00000000000E+00 0. -1.
         -5    1    3    3    0  503 -0.97705695838E+02 -0.93270484442E+02 -0.43410703045E+03  0.45466118171E+03  0.47000000000E+01 0.  1.
         13    1    4    4    0    0 -0.86060030674E+02  0.14781030467E+02 -0.13731240498E+03  0.16272524175E+03  0.00000000000E+00 0. -1.
        -14    1    4    4    0    0  0.16360483684E+02 -0.50164472231E+01 -0.18668055375E+02  0.25324424191E+02  0.00000000000E+00 0.  1.
</event>
<event>
12    1  0.8297444E-002  0.1987753E+03  0.7818608E-02  0.1150887E+00
         21   -1    0    0  501  502  0.00000000000E+00  0.00000000000E+00  0.99031360845E+02  0.99031360845E+02  0.00000000000E+00 0.  1.
         21   -1    0    0  502  503 -0.00000000000E+00 -0.00000000000E+00 -0.40495302880E+03  0.40495302880E+03  0.00000000000E+00 0. -1.
         -6    2    1    2    0  503 -0.91462171377E+01 -0.98667527000E+02 -0.11998372966E+03  0.23218037117E+03  0.17231568472E+03 0.  0.
        -24    2    3    3    0    0  0.36429856185E+02 -0.34620999364E+01 -0.31976647827E+02  0.94671868686E+02  0.81247376306E+02 0.  0.
          6    2    1    2  501    0  0.91462171377E+01  0.98667527000E+02 -0.18593793829E+03  0.27180401847E+03  0.17171363775E+03 0.  0.
         24    2    5    5    0    0 -0.44134698214E+02  0.93569838572E+02 -0.83720959360E+02  0.15632569518E+03  0.82008156068E+02 0.  0.
          5    1    5    5  501    0  0.53280915351E+02  0.50976884275E+01 -0.10221697893E+03  0.11547832329E+03  0.47000000000E+01 0. -1.
        -13    1    6    6    0    0  0.10279605050E+01  0.30937224300E+02  0.12125245980E+02  0.33244400134E+02  0.00000000000E+00 0.  1.
         14    1    6    6    0    0 -0.45162658719E+02  0.62632614272E+02 -0.95846205340E+02  0.12308129505E+03  0.00000000000E+00 0. -1.
         -5    1    3    3    0  503 -0.45576073323E+02 -0.95205427063E+02 -0.88007081832E+02  0.13750850248E+03  0.47000000000E+01 0.  1.
         11    1    4    4    0    0  0.35687137152E+02 -0.39394938872E+02 -0.18318992864E+02  0.56223824722E+02  0.00000000000E+00 0. -1.
        -12    1    4    4    0    0  0.74271903312E+00  0.35932838936E+02 -0.13657654963E+02  0.38448043964E+02  0.00000000000E+00 0.  1.
</event>
<event>
12    1  0.8297444E-002  0.1959063E+03  0.7818608E-02  0.1153421E+00
         21   -1    0    0  503  502  0.00000000000E+00  0.00000000000E+00  0.11263966668E+03  0.11263966668E+03  0.00000000000E+00 0. -1.
         21   -1    0    0  501  503 -0.00000000000E+00 -0.00000000000E+00 -0.51582836684E+03  0.51582836684E+03  0.00000000000E+00 0. -1.
          6    2    1    2  501    0  0.22166879456E+02  0.90162192277E+02 -0.38571825074E+03  0.43261743400E+03  0.17250705432E+03 0.  0.
         24    2    3    3    0    0  0.36632986760E+01  0.10117249354E+03 -0.15575739929E+03  0.20160294867E+03  0.78320420541E+02 0.  0.
         -6    2    1    2    0  502 -0.22166879456E+02 -0.90162192277E+02 -0.17470449423E+02  0.19585059951E+03  0.17155654830E+03 0.  0.
        -24    2    5    5    0    0  0.31997728459E+02 -0.43014029591E+02  0.34818786790E+02  0.10689550849E+03  0.85675203262E+02 0.  0.
          5    1    3    3  501    0  0.18503580780E+02 -0.11010301259E+02 -0.22996085145E+03  0.23101448533E+03  0.47000000000E+01 0. -1.
        -11    1    4    4    0    0 -0.34260797688E+02  0.23544090352E+02 -0.52656974520E+02  0.67088623584E+02  0.00000000000E+00 0.  1.
         12    1    4    4    0    0  0.37924096364E+02  0.77628403183E+02 -0.10310042477E+03  0.13451432509E+03  0.00000000000E+00 0. -1.
         -5    1    5    5    0  502 -0.54164607915E+02 -0.47148162686E+02 -0.52289236213E+02  0.88955091023E+02  0.47000000000E+01 0.  1.
         13    1    6    6    0    0 -0.23864080822E+02 -0.38123107738E+02  0.14612266495E+02  0.47290422172E+02  0.00000000000E+00 0. -1.
        -14    1    6    6    0    0  0.55861809281E+02 -0.48909218534E+01  0.20206520295E+02  0.59605086320E+02  0.00000000000E+00 0.  1.
</event>
<event>
12    1  0.8297444E-002  0.1825470E+03  0.7818608E-02  0.1165805E+00
         21   -1    0    0  501  502  0.00000000000E+00  0.00000000000E+00  0.55482999216E+03  0.55482999216E+03  0.00000000000E+00 0.  1.
         21   -1    0    0  502  503 -0.00000000000E+00 -0.00000000000E+00 -0.32213262723E+03  0.32213262723E+03  0.00000000000E+00 0. -1.
         -6    2    1    2    0  503 -0.26418409007E+02 -0.48873177282E+02 -0.27949854346E+03  0.33383055749E+03  0.17388756576E+03 0.  0.
        -24    2    3    3    0    0 -0.41698153789E+02  0.89476066661E+01 -0.25068675161E+03  0.26728040342E+03  0.82317500713E+02 0.  0.
          6    2    1    2  501    0  0.26418409007E+02  0.48873177282E+02  0.51219590840E+03  0.54313206190E+03  0.17193390678E+03 0.  0.
         24    2    5    5    0    0  0.56705308467E+02 -0.15551372193E+02  0.38502825243E+03  0.39731875120E+03  0.78473547791E+02 0.  0.
          5    1    5    5  501    0 -0.30286899460E+02  0.64424549474E+02  0.12716765597E+03  0.14581331070E+03  0.47000000000E+01 0. -1.
        -11    1    6    6    0    0 -0.55523224886E+01  0.10344226587E+02  0.20072749401E+03  0.20107053032E+03  0.00000000000E+00 0.  1.
         12    1    6    6    0    0  0.62257630956E+02 -0.25895598779E+02  0.18430075841E+03  0.19624822088E+03  0.00000000000E+00 0. -1.
         -5    1    3    3    0  503  0.15279744782E+02 -0.57820783948E+02 -0.28811791845E+02  0.66550154067E+02  0.47000000000E+01 0.  1.
         13    1    4    4    0    0 -0.38172009956E+02  0.28455085838E+02 -0.65177269441E+02  0.80714748998E+02  0.00000000000E+00 0. -1.
        -14    1    4    4    0    0 -0.35261438332E+01 -0.19507479172E+02 -0.18550948217E+03  0.18656565442E+03  0.00000000000E+00 0.  1.
</event>
<event>
12    1  0.8297444E-002  0.1886770E+03  0.7818608E-02  0.1159823E+00
         21   -1    0    0  503  502  0.00000000000E+00  0.00000000000E+00  0.22676969002E+02  0.22676969002E+02  0.00000000000E+00 0.  1.
         21   -1    0    0  501  503 -0.00000000000E+00 -0.00000000000E+00 -0.15890371112E+04  0.15890371112E+04  0.00000000000E+00 0. -1.
          6    2    1    2  501    0 -0.52654874016E+02  0.55905178633E+02 -0.68327922117E+03  0.70885082226E+03  0.17233998194E+03 0.  0.
         24    2    3    3    0    0 -0.82712669588E+02  0.74209026091E+02 -0.36334913346E+03  0.38695665808E+03  0.73242727867E+02 0.  0.
         -6    2    1    2    0  502  0.52654874016E+02 -0.55905178633E+02 -0.88308092106E+03  0.90286325798E+03  0.17155822542E+03 0.  0.
        -24    2    5    5    0    0  0.36753246467E+02 -0.51754704502E+02 -0.25452522321E+03  0.27407518280E+03  0.79402556691E+02 0.  0.
          5    1    3    3  501    0  0.30057795571E+02 -0.18303847458E+02 -0.31993008772E+03  0.32189416418E+03  0.47000000000E+01 0. -1.
        -13    1    4    4    0    0 -0.14573924958E+02 -0.13522381598E+02 -0.34088227939E+02  0.39462151193E+02  0.00000000000E+00 0.  1.
         14    1    4    4    0    0 -0.68138744630E+02  0.87731407689E+02 -0.32926090552E+03  0.34749450689E+03  0.00000000000E+00 0. -1.
         -5    1    5    5    0  502  0.15901627549E+02 -0.41504741307E+01 -0.62855569785E+03  0.62878807518E+03  0.47000000000E+01 0.  1.
         11    1    6    6    0    0  0.14042411684E+02  0.52418333159E+01 -0.16419902512E+03  0.16488173335E+03  0.00000000000E+00 0. -1.
        -12    1    6    6    0    0  0.22710834783E+02 -0.56996537818E+02 -0.90326198094E+02  0.10919344945E+03  0.00000000000E+00 0.  1.
</event>
<event>
12    1  0.8297444E-002  0.2595889E+03  0.7818608E-02  0.1109294E+00
         21   -1    0    0  501  502  0.00000000000E+00  0.00000000000E+00  0.51500760512E+02  0.51500760512E+02  0.00000000000E+00 0.  1.
         21   -1    0    0  502  503 -0.00000000000E+00 -0.00000000000E+00 -0.16148802491E+04  0.16148802491E+04  0.00000000000E+00 0.  1.
         -6    2    1    2    0  503 -0.13358617147E+03  0.11601851671E+03 -0.11939075554E+04  0.12218026226E+04  0.18994956260E+03 0.  0.
        -24    2    3    3    0    0  0.14691316450E+02  0.55744707570E+02 -0.46029216107E+03  0.47091462676E+03  0.81045696744E+02 0.  0.
          6    2    1    2  501    0  0.13358617147E+03 -0.11601851671E+03 -0.36947193323E+03  0.44457838705E+03  0.17272773767E+03 0.  0.
         24    2    5    5    0    0  0.56127983734E+02 -0.12514064325E+03 -0.30344631728E+03  0.34228246338E+03  0.79164929804E+02 0.  0.
          5    1    5    5  501    0  0.77458187732E+02  0.91221265383E+01 -0.66025615950E+02  0.10229592368E+03  0.47000000000E+01 0. -1.
        -11    1    6    6    0    0  0.69109361118E+02 -0.75611081802E+02 -0.16010200723E+03  0.19006786210E+03  0.00000000000E+00 0.  1.
         12    1    6    6    0    0 -0.12981377384E+02 -0.49529561450E+02 -0.14334431005E+03  0.15221460127E+03  0.00000000000E+00 0. -1.
         -5    1    3    3    0  503 -0.14827748792E+03  0.60273809144E+02 -0.73361539431E+03  0.75088799582E+03  0.47000000000E+01 0.  1.
         13    1    4    4    0    0  0.15179402280E+02 -0.11529549260E+01 -0.13001990347E+02  0.20019872917E+02  0.00000000000E+00 0. -1.
        -14    1    4    4    0    0 -0.48808582989E+00  0.56897662496E+02 -0.44729017072E+03  0.45089475385E+03  0.00000000000E+00 0.  1.
</event>
<event>
12    1  0.8297444E-002  0.1819769E+03  0.7818608E-02  0.1165925E+00
         21   -1    0    0  503  502  0.00000000000E+00  0.00000000000E+00  0.52011635591E+02  0.52011635591E+02  0.00000000000E+00 0.  1.
         21   -1    0    0  501  503 -0.00000000000E+00 -0.00000000000E+00 -0.65652385176E+03  0.65652385176E+03  0.00000000000E+00 0.  1.
          6    2    1    2  501    0  0.23983135648E+02  0.52020358156E+02 -0.36438793411E+03  0.40730106106E+03  0.17272602397E+03 0.  0.
         24    2    3    3    0    0  0.75053623807E+02  0.62125494888E+02 -0.21044108288E+03  0.24472175255E+03  0.78170731409E+02 0.  0.
         -6    2    1    2    0  502 -0.23983135648E+02 -0.52020358156E+02 -0.24012428206E+03  0.30123442629E+03  0.17263024153E+03 0.  0.
        -24    2    5    5    0    0 -0.67829585740E+02 -0.44551152798E+01 -0.19738207488E+03  0.22355592354E+03  0.79980414551E+02 0.  0.
          5    1    3    3  501    0 -0.51070488158E+02 -0.10105136732E+02 -0.15394685123E+03  0.16257930850E+03  0.47000000000E+01 0. -1.
        -11    1    4    4    0    0  0.44685216926E+02  0.24481659220E+02 -0.18114571915E+03  0.18817516259E+03  0.00000000000E+00 0.  1.
         12    1    4    4    0    0  0.30368406880E+02  0.37643835669E+02 -0.29295363723E+02  0.56546589959E+02  0.00000000000E+00 0. -1.
         -5    1    5    5    0  502  0.43846450091E+02 -0.47565242876E+02 -0.42742207179E+02  0.77678502754E+02  0.47000000000E+01 0.  1.
         13    1    6    6    0    0  0.14704447837E+02 -0.14091474127E+02 -0.25442017422E+02  0.32589671366E+02  0.00000000000E+00 0. -1.
        -14    1    6    6    0    0 -0.82534033577E+02  0.96363588468E+01 -0.17194005746E+03  0.19096625217E+03  0.00000000000E+00 0.  1.
</event>
<event>
12    1  0.8297444E-002  0.4162257E+03  0.7818608E-02  0.1038305E+00
         21   -1    0    0  501  502  0.00000000000E+00  0.00000000000E+00  0.47786061989E+03  0.47786061989E+03  0.00000000000E+00 0. -1.
         21   -1    0    0  502  503 -0.00000000000E+00 -0.00000000000E+00 -0.41016324583E+03  0.41016324583E+03  0.00000000000E+00 0.  1.
         -6    2    1    2    0  503  0.35995167612E+03  0.11838422839E+03 -0.11750673085E+03  0.43245344758E+03  0.17212820180E+03 0.  0.
        -24    2    3    3    0    0  0.17874314645E+03  0.10671894110E+03 -0.11288179625E+03  0.25075014499E+03  0.82433552001E+02 0.  0.
          6    2    1    2  501    0 -0.35995167612E+03 -0.11838422839E+03  0.18520410491E+03  0.45557041815E+03  0.17223185173E+03 0.  0.
         24    2    5    5    0    0 -0.17211561649E+03 -0.63533327744E+02  0.16399836075E+03  0.25868776228E+03  0.79772343900E+02 0.  0.
          5    1    5    5  501    0 -0.18783605963E+03 -0.54850900644E+02  0.21205744158E+02  0.19688265587E+03  0.47000000000E+01 0. -1.
        -13    1    6    6    0    0 -0.44092398439E+02 -0.12134746888E+02  0.92769158339E+02  0.10342876013E+03  0.00000000000E+00 0.  1.
         14    1    6    6    0    0 -0.12802321805E+03 -0.51398580855E+02  0.71229202412E+02  0.15525900216E+03  0.00000000000E+00 0. -1.
         -5    1    3    3    0  503  0.18120852966E+03  0.11665287291E+02 -0.46249346003E+01  0.18170330259E+03  0.47000000000E+01 0.  1.
         11    1    4    4    0    0  0.94742697777E+01 -0.99807248446E+01 -0.22025384007E+02  0.25971026104E+02  0.00000000000E+00 0. -1.
        -12    1    4    4    0    0  0.16926887668E+03  0.11669966594E+03 -0.90856412242E+02  0.22477911889E+03  0.00000000000E+00 0.  1.
</event>
<event>
12    1  0.8297444E-002  0.2016300E+03  0.7818608E-02  0.1148485E+00
         21   -1    0    0  501  502  0.00000000000E+00  0.00000000000E+00  0.11253026515E+03  0.11253026515E+03  0.00000000000E+00 0.  1.
         21   -1    0    0  502  503 -0.00000000000E+00 -0.00000000000E+00 -0.40196509892E+03  0.40196509892E+03  0.00000000000E+00 0.  1.
         -6    2    1    2    0  503  0.64750356687E+02 -0.81002403554E+02 -0.62073031971E+02  0.21096849408E+03  0.17291803296E+03 0.  0.
        -24    2    3    3    0    0  0.22223369756E+02  0.20360814885E+02 -0.24919477504E+01  0.85848382716E+02  0.80344844671E+02 0.  0.
          6    2    1    2  501    0 -0.64750356687E+02  0.81002403554E+02 -0.22736180181E+03  0.30352687000E+03  0.17228225044E+03 0.  0.
         24    2    5    5    0    0 -0.33077583575E+02  0.11677203993E+03 -0.12837929639E+03  0.19351660765E+03  0.78978464464E+02 0.  0.
          5    1    5    5  501    0 -0.31672773111E+02 -0.35769636377E+02 -0.98982505419E+02  0.11001026235E+03  0.47000000000E+01 0. -1.
        -13    1    6    6    0    0 -0.12435442568E+02  0.77852263736E+02 -0.12694964265E+03  0.14943837181E+03  0.00000000000E+00 0.  1.
         14    1    6    6    0    0 -0.20642141008E+02  0.38919776195E+02 -0.14296537371E+01  0.44078235835E+02  0.00000000000E+00 0. -1.
         -5    1    3    3    0  503  0.42526986931E+02 -0.10136321844E+03 -0.59581084221E+02  0.12512011136E+03  0.47000000000E+01 0.  1.
         13    1    4    4    0    0 -0.21302694114E+02  0.16290830450E+02 -0.25013193608E+02  0.36672275465E+02  0.00000000000E+00 0. -1.
        -14    1    4    4    0    0  0.43526063871E+02  0.40699844350E+01  0.22521245858E+02  0.49176107251E+02  0.00000000000E+00 0.  1.
</event>
<event>
12    1  0.8297444E-002  0.1967712E+03  0.7818608E-02  0.1152819E+00
         21   -1    0    0  503  502  0.00000000000E+00  0.00000000000E+00  0.46163459444E+02  0.46163459444E+02  0.00000000000E+00 0.  1.
         21   -1    0    0  501  503 -0.00000000000E+00 -0.00000000000E+00 -0.86185996407E+03  0.86185996407E+03  0.00000000000E+00 0.  1.
          6    2    1    2  501    0 -0.73110010857E+02  0.62668289713E+02 -0.49344924949E+03  0.53123541133E+03  0.17159986073E+03 0.  0.
         24    2    3    3    0    0 -0.21132164487E+02  0.80846192720E+02 -0.18751934281E+03  0.22035387364E+03  0.80060292584E+02 0.  0.
         -6    2    1    2    0  502  0.73110010857E+02 -0.62668289713E+02 -0.32224725514E+03  0.37678801219E+03  0.16986325224E+03 0.  0.
        -24    2    5    5    0    0 -0.19809959024E+02  0.42179761504E+01 -0.14053770808E+03  0.16196635858E+03  0.77923219406E+02 0.  0.
          5    1    3    3  501    0 -0.51977846370E+02 -0.18177903008E+02 -0.30592990668E+03  0.31088153768E+03  0.47000000000E+01 0. -1.
        -13    1    4    4    0    0 -0.45769444215E+02  0.77762874041E+02 -0.15616236350E+03  0.18035684178E+03  0.00000000000E+00 0.  1.
         14    1    4    4    0    0  0.24637279728E+02  0.30833186792E+01 -0.31356979307E+02  0.39997031862E+02  0.00000000000E+00 0. -1.
         -5    1    5    5    0  502  0.92919969881E+02 -0.66886265863E+02 -0.18170954706E+03  0.21482165361E+03  0.47000000000E+01 0.  1.
         11    1    6    6    0    0 -0.14640489727E+02 -0.45022501286E+01 -0.14836828828E+03  0.14915684082E+03  0.00000000000E+00 0. -1.
        -12    1    6    6    0    0 -0.51694692967E+01  0.87202262790E+01  0.78305802021E+01  0.12809517769E+02  0.00000000000E+00 0.  1.
</event>
<event>
12    1  0.8297444E-002  0.2297318E+03  0.7818608E-02  0.1126894E+00
         21   -1    0    0  503  502  0.00000000000E+00  0.00000000000E+00  0.29706184023E+03  0.29706184023E+03  0.00000000000E+00 0.  1.
         21   -1    0    0  501  503 -0.00000000000E+00 -0.00000000000E+00 -0.20142683691E+03  0.20142683691E+03  0.00000000000E+00 0. -1.
          6    2    1    2  501    0  0.15154271974E+03  0.40922225259E+01 -0.38272689081E+02  0.23289801381E+03  0.17261154050E+03 0.  0.
         24    2    3    3    0    0  0.15255119645E+03 -0.36039717616E+02  0.28946994548E+01  0.17520543609E+03  0.78216601601E+02 0.  0.
         -6    2    1    2    0  502 -0.15154271974E+03 -0.40922225259E+01  0.13390769240E+03  0.26559066332E+03  0.17211969140E+03 0.  0.
        -24    2    5    5    0    0 -0.94642827985E+02 -0.62866897435E+02  0.11811926473E+03  0.18214352712E+03  0.79464407681E+02 0.  0.
          5    1    3    3  501    0 -0.10084767087E+01  0.40131940142E+02 -0.41167388536E+02  0.57692577717E+02  0.47000000000E+01 0. -1.
        -11    1    4    4    0    0  0.14078954253E+02  0.13697167092E+02 -0.17942232265E+02  0.26603628283E+02  0.00000000000E+00 0.  1.
         12    1    4    4    0    0  0.13847224220E+03 -0.49736884708E+02  0.20836931719E+02  0.14860180781E+03  0.00000000000E+00 0. -1.
         -5    1    5    5    0  502 -0.56899891760E+02  0.58774674909E+02  0.15788427669E+02  0.83447136207E+02  0.47000000000E+01 0.  1.
         11    1    6    6    0    0 -0.68835043299E+02  0.19642698759E+01  0.59698776911E+02  0.91137618505E+02  0.00000000000E+00 0. -1.
        -12    1    6    6    0    0 -0.25807784687E+02 -0.64831167311E+02  0.58420487818E+02  0.91005908612E+02  0.00000000000E+00 0.  1.
</event>
<event>
12    1  0.8297444E-002  0.1779312E+03  0.7818608E-02  0.1170194E+00
         21   -1    0    0  501  502  0.00000000000E+00  0.00000000000E+00  0.45651338270E+02  0.45651338270E+02  0.00000000000E+00 0. -1.
         21   -1    0    0  502  503 -0.00000000000E+00 -0.00000000000E+00 -0.68839665446E+03  0.68839665446E+03  0.00000000000E+00 0. -1.
         -6    2    1    2    0  503 -0.26786755199E+02  0.34172073305E+02 -0.33235932422E+03  0.37627857103E+03  0.17099000489E+03 0.  0.
        -24    2    3    3    0    0 -0.35464543124E+02 -0.25215387347E+02 -0.93886701597E+02  0.13032439598E+03  0.79222382394E+02 0.  0.
          6    2    1    2  501    0  0.26786755199E+02 -0.34172073305E+02 -0.31038599197E+03  0.35776942170E+03  0.17255212037E+03 0.  0.
         24    2    5    5    0    0 -0.45508521414E+02 -0.21340086733E+01 -0.12976915138E+03  0.16054473331E+03  0.82819075269E+02 0.  0.
          5    1    5    5  501    0  0.72295276613E+02 -0.32038064632E+02 -0.18061684059E+03  0.19722468839E+03  0.47000000000E+01 0. -1.
        -11    1    6    6    0    0 -0.29242932211E+01 -0.33601843764E+02 -0.84134908273E+02  0.90643908705E+02  0.00000000000E+00 0.  1.
         12    1    6    6    0    0 -0.42584228193E+02  0.31467835091E+02 -0.45634243105E+02  0.69900824600E+02  0.00000000000E+00 0. -1.
         -5    1    3    3    0  503  0.86777879246E+01  0.59387460652E+02 -0.23847262262E+03  0.24595417505E+03  0.47000000000E+01 0.  1.
         11    1    4    4    0    0 -0.73669514348E+01 -0.15556787449E+02 -0.98731433758E+02  0.10022066464E+03  0.00000000000E+00 0. -1.
        -12    1    4    4    0    0 -0.28097591689E+02 -0.96585998983E+01  0.48447321607E+01  0.30103731337E+02  0.00000000000E+00 0.  1.
</event>
<event>
12    1  0.8297444E-002  0.2205575E+03  0.7818608E-02  0.1133991E+00
         21   -1    0    0  501  502  0.00000000000E+00  0.00000000000E+00  0.24147284817E+03  0.24147284817E+03  0.00000000000E+00 0. -1.
         21   -1    0    0  502  503 -0.00000000000E+00 -0.00000000000E+00 -0.28698026233E+03  0.28698026233E+03  0.00000000000E+00 0. -1.
         -6    2    1    2    0  503  0.10304533876E+03  0.84203253201E+02 -0.16922621320E+03  0.27799840236E+03  0.17588937089E+03 0.  0.
        -24    2    3    3    0    0  0.91176696078E+02 -0.13859932484E+02 -0.10242056312E+03  0.15865713562E+03  0.78592794174E+02 0.  0.
          6    2    1    2  501    0 -0.10304533876E+03 -0.84203253201E+02  0.12371879904E+03  0.25045470814E+03  0.17237369260E+03 0.  0.
         24    2    5    5    0    0 -0.54118848076E+02  0.17811266796E+02  0.86768729486E+02  0.13134063919E+03  0.80470243842E+02 0.  0.
          5    1    5    5  501    0 -0.48926490687E+02 -0.10201452000E+03  0.36950069553E+02  0.11911406895E+03  0.47000000000E+01 0. -1.
        -11    1    6    6    0    0 -0.64297779006E+02 -0.65257056587E+01  0.35630500448E+02  0.73799199058E+02  0.00000000000E+00 0.  1.
         12    1    6    6    0    0  0.10178930930E+02  0.24336972455E+02  0.51138229038E+02  0.57541440131E+02  0.00000000000E+00 0. -1.
         -5    1    3    3    0  503  0.11868642685E+02  0.98063185685E+02 -0.66805650077E+02  0.11934126674E+03  0.47000000000E+01 0.  1.
         13    1    4    4    0    0  0.34865817914E+02  0.32809332754E+02 -0.36590909615E+02  0.60257549246E+02  0.00000000000E+00 0. -1.
        -14    1    4    4    0    0  0.56310878164E+02 -0.46669265238E+02 -0.65829653505E+02  0.98399586371E+02  0.00000000000E+00 0.  1.
</event>
<event>
12    1  0.8297444E-002  0.1725927E+03  0.7818608E-02  0.1175472E+00
         21   -1    0    0  501  502  0.00000000000E+00  0.00000000000E+00  0.49996031537E+02  0.49996031537E+02  0.00000000000E+00 0. -1.
         21   -1    0    0  502  503 -0.00000000000E+00 -0.00000000000E+00 -0.21875615752E+04  0.21875615752E+04  0.00000000000E+00 0. -1.
         -6    2    1    2    0  503 -0.12371636596E+02  0.28918899302E+01 -0.20253140914E+04  0.20326547670E+04  0.17212440999E+03 0.  0.
        -24    2    3    3    0    0  0.21871514261E+02  0.59846608564E+02 -0.14138776387E+04  0.14175994370E+04  0.80487307354E+02 0.  0.
          6    2    1    2  501    0  0.12371636596E+02 -0.28918899302E+01 -0.11225145222E+03  0.20490283971E+03  0.17094842724E+03 0.  0.
         24    2    5    5    0    0 -0.36581933593E+02  0.91692488380E+01 -0.12443708462E+03  0.15282114677E+03  0.80295715206E+02 0.  0.
          5    1    5    5  501    0  0.48953570188E+02 -0.12061138768E+02  0.12185632399E+02  0.52081692940E+02  0.47000000000E+01 0. -1.
        -11    1    6    6    0    0 -0.24203241261E+02  0.44354621843E+02 -0.60767322918E+02  0.79030354301E+02  0.00000000000E+00 0.  1.
         12    1    6    6    0    0 -0.12378692332E+02 -0.35185373005E+02 -0.63669761702E+02  0.73790792465E+02  0.00000000000E+00 0. -1.
         -5    1    3    3    0  503 -0.34243150856E+02 -0.56954718633E+02 -0.61143645265E+03  0.61505533002E+03  0.47000000000E+01 0.  1.
         13    1    4    4    0    0  0.49785113749E+02  0.30326386407E+02 -0.10107664846E+04  0.10124461139E+04  0.00000000000E+00 0. -1.
        -14    1    4    4    0    0 -0.27913599488E+02  0.29520222156E+02 -0.40311115415E+03  0.40515332302E+03  0.00000000000E+00 0.  1.
</event>
<event>
12    1  0.8297444E-002  0.1867225E+03  0.7818608E-02  0.1161575E+00
         21   -1    0    0  503  502  0.00000000000E+00  0.00000000000E+00  0.10044966028E+04  0.10044966028E+04  0.00000000000E+00 0. -1.
         21   -1    0    0  501  503 -0.00000000000E+00 -0.00000000000E+00 -0.10688168683E+03  0.10688168683E+03  0.00000000000E+00 0. -1.
          6    2    1    2  501    0 -0.39405053512E+02  0.70592550994E+02 -0.79298124040E+01  0.18689080735E+03  0.16831287963E+03 0.  0.
         24    2    3    3    0    0 -0.75696431449E+02  0.78725128878E+02  0.24513037066E+02  0.13731428653E+03  0.79540735773E+02 0.  0.
         -6    2    1    2    0  502  0.39405053512E+02 -0.70592550994E+02  0.90554472837E+03  0.92448748227E+03  0.16771935874E+03 0.  0.
        -24    2    5    5    0    0 -0.15317693812E+02 -0.39756938023E+02  0.25209341563E+03  0.26800738187E+03  0.80384206576E+02 0.  0.
          5    1    3    3  501    0  0.36291377936E+02 -0.81325778846E+01 -0.32442849470E+02  0.49576520827E+02  0.47000000000E+01 0. -1.
        -11    1    4    4    0    0  0.10666554450E+02  0.36466305174E+02  0.14418510471E+02  0.40638162373E+02  0.00000000000E+00 0.  1.
         12    1    4    4    0    0 -0.86362985899E+02  0.42258823705E+02  0.10094526595E+02  0.96676124154E+02  0.00000000000E+00 0. -1.
         -5    1    5    5    0  502  0.54722747324E+02 -0.30835612971E+02  0.65345131274E+03  0.65648010040E+03  0.47000000000E+01 0.  1.
         13    1    6    6    0    0  0.30839784841E+02 -0.13749281346E+02  0.61183936747E+02  0.69882824659E+02  0.00000000000E+00 0. -1.
        -14    1    6    6    0    0 -0.46157478653E+02 -0.26007656677E+02  0.19090947888E+03  0.19812455721E+03  0.00000000000E+00 0.  1.
</event>
<event>
12    1  0.8297444E-002  0.2425587E+03  0.7818608E-02  0.1118116E+00
         21   -1    0    0  503  502  0.00000000000E+00  0.00000000000E+00  0.35691001703E+04  0.35691001703E+04  0.00000000000E+00 0.  1.
         21   -1    0    0  501  503 -0.00000000000E+00 -0.00000000000E+00 -0.17098430901E+02  0.17098430901E+02  0.00000000000E+00 0.  1.
          6    2    1    2  501    0  0.16582582564E+03 -0.42354796422E+02  0.21179773017E+04  0.21318214179E+04  0.17187953371E+03 0.  0.
         24    2    3    3    0    0  0.20685106885E+02 -0.57374049844E+02  0.93556392559E+03  0.94042942187E+03  0.73538992489E+02 0.  0.
         -6    2    1    2    0  502 -0.16582582564E+03  0.42354796422E+02  0.14340244377E+04  0.14543771833E+04  0.17174041497E+03 0.  0.
        -24    2    5    5    0    0 -0.15360921355E+03  0.14640928392E+02  0.75872173200E+03  0.77837929985E+03  0.80034496040E+02 0.  0.
          5    1    3    3  501    0  0.14514071875E+03  0.15019253422E+02  0.11824133761E+04  0.11913919960E+04  0.47000000000E+01 0. -1.
        -13    1    4    4    0    0  0.39488027678E+02 -0.48414786868E+02  0.85278023340E+03  0.85506574156E+03  0.00000000000E+00 0.  1.
         14    1    4    4    0    0 -0.18802920792E+02 -0.89592629761E+01  0.82783692189E+02  0.85363680309E+02  0.00000000000E+00 0. -1.
         -5    1    5    5    0  502 -0.12216612087E+02  0.27713868030E+02  0.67530270571E+03  0.67599788345E+03  0.47000000000E+01 0.  1.
         13    1    6    6    0    0 -0.52360135750E+02 -0.21144307946E+02  0.15038918044E+03  0.16064112539E+03  0.00000000000E+00 0. -1.
        -14    1    6    6    0    0 -0.10124907780E+03  0.35785236339E+02  0.60833255156E+03  0.61773817445E+03  0.00000000000E+00 0.  1.
</event>
<event>
12    1  0.8297444E-002  0.1841487E+03  0.7818608E-02  0.1163884E+00
         21   -1    0    0  501  502  0.00000000000E+00  0.00000000000E+00  0.20005299415E+04  0.20005299415E+04  0.00000000000E+00 0. -1.
         21   -1    0    0  502  503 -0.00000000000E+00 -0.00000000000E+00 -0.17882975223E+02  0.17882975223E+02  0.00000000000E+00 0. -1.
         -6    2    1    2    0  503  0.66677619581E+02 -0.53806004905E+01  0.12231011263E+04  0.12368627704E+04  0.17140096811E+03 0.  0.
        -24    2    3    3    0    0  0.82806030612E+02  0.45097554264E+01  0.12032988317E+04  0.12090749016E+04  0.84005134823E+02 0.  0.
          6    2    1    2  501    0 -0.66677619581E+02  0.53806004905E+01  0.75954584000E+03  0.78155014632E+03  0.17156891429E+03 0.  0.
         24    2    5    5    0    0  0.21726454926E+02  0.23123238404E+02  0.24541609112E+03  0.25955247366E+03  0.78305209304E+02 0.  0.
          5    1    5    5  501    0 -0.88404074507E+02 -0.17742637913E+02  0.51412974887E+03  0.52199767266E+03  0.47000000000E+01 0. -1.
        -11    1    6    6    0    0 -0.46764541919E+01  0.34916442120E+02  0.45439004175E+02  0.57495480296E+02  0.00000000000E+00 0.  1.
         12    1    6    6    0    0  0.26402909118E+02 -0.11793203716E+02  0.19997708695E+03  0.20205699336E+03  0.00000000000E+00 0. -1.
         -5    1    3    3    0  503 -0.16128411031E+02 -0.98903559169E+01  0.19802294596E+02  0.27787868825E+02  0.47000000000E+01 0.  1.
         13    1    4    4    0    0  0.84165659570E+02  0.20844883557E+02  0.67821664081E+03  0.68373692258E+03  0.00000000000E+00 0. -1.
        -14    1    4    4    0    0 -0.13596289579E+01 -0.16335128131E+02  0.52508219086E+03  0.52533797898E+03  0.00000000000E+00 0.  1.
</event>
<event>
12    1  0.8297444E-002  0.2821352E+03  0.7818608E-02  0.1094616E+00
         21   -1    0    0  501  502  0.00000000000E+00  0.00000000000E+00  0.99912806277E+03  0.99912806277E+03  0.00000000000E+00 0. -1.
         21   -1    0    0  502  503 -0.00000000000E+00 -0.00000000000E+00 -0.19416587835E+03  0.19416587835E+03  0.00000000000E+00 0. -1.
         -6    2    1    2    0  503  0.59361881712E+02  0.21456062049E+03 -0.55864630534E+02  0.28761284137E+03  0.17332107983E+03 0.  0.
        -24    2    3    3    0    0  0.10799320535E+03  0.16191490414E+03 -0.30870360810E+02  0.21156430025E+03  0.76990294043E+02 0.  0.
          6    2    1    2  501    0 -0.59361881712E+02 -0.21456062049E+03  0.86082681495E+03  0.90568109975E+03  0.17226536577E+03 0.  0.
         24    2    5    5    0    0  0.28815101452E+02 -0.48972727418E+02  0.30178057578E+03  0.31597836259E+03  0.74445762816E+02 0.  0.
          5    1    5    5  501    0 -0.88176983164E+02 -0.16558789307E+03  0.55904623917E+03  0.58970273716E+03  0.47000000000E+01 0. -1.
        -11    1    6    6    0    0  0.74919200633E+01  0.11622478073E+02  0.15674458413E+03  0.15735334606E+03  0.00000000000E+00 0.  1.
         12    1    6    6    0    0  0.21323181389E+02 -0.60595205490E+02  0.14503599165E+03  0.15862501652E+03  0.00000000000E+00 0. -1.
         -5    1    3    3    0  503 -0.48631323639E+02  0.52645716343E+02 -0.24994269724E+02  0.76048541124E+02  0.47000000000E+01 0.  1.
         11    1    4    4    0    0  0.97486190638E+02  0.11534013068E+03  0.61552173897E+01  0.15114492982E+03  0.00000000000E+00 0. -1.
        -12    1    4    4    0    0  0.10507014713E+02  0.46574773467E+02 -0.37025578200E+02  0.60419370426E+02  0.00000000000E+00 0.  1.
</event>
<event>
12    1  0.8297444E-002  0.1783346E+03  0.7818608E-02  0.1169643E+00
         21   -1    0    0  501  502  0.00000000000E+00  0.00000000000E+00  0.19409190465E+03  0.19409190465E+03  0.00000000000E+00 0. -1.
         21   -1    0    0  502  503 -0.00000000000E+00 -0.00000000000E+00 -0.24102497263E+03  0.24102497263E+03  0.00000000000E+00 0. -1.
         -6    2    1    2    0  503  0.49806277292E+02 -0.48662112664E+01 -0.14717872078E+03  0.23053821189E+03  0.17024084710E+03 0.  0.
        -24    2    3    3    0    0 -0.15923880052E+02  0.12701626921E+02 -0.13948495593E+03  0.16190610176E+03  0.79640640218E+02 0.  0.
          6    2    1    2  501    0 -0.49806277292E+02  0.48662112664E+01  0.10024565279E+03  0.20457866539E+03  0.17116919746E+03 0.  0.
         24    2    5    5    0    0 -0.10058760934E+03  0.11772973272E+02  0.41200839587E+02  0.12625352887E+03  0.63134573070E+02 0.  0.
          5    1    5    5  501    0  0.50781332044E+02 -0.69067620060E+01  0.59044813207E+02  0.78325136529E+02  0.47000000000E+01 0. -1.
        -13    1    6    6    0    0 -0.74401772579E+02  0.11338177498E+02 -0.25042173421E+01  0.75302384666E+02  0.00000000000E+00 0.  1.
         14    1    6    6    0    0 -0.26185836756E+02  0.43479577452E+00  0.43705056929E+02  0.50951144199E+02  0.00000000000E+00 0. -1.
         -5    1    3    3    0  503  0.65730157344E+02 -0.17567838188E+02 -0.76937648467E+01  0.68632110128E+02  0.47000000000E+01 0.  1.
         13    1    4    4    0    0 -0.49337799180E+01 -0.32835192510E+02 -0.76637430699E+02  0.83521181957E+02  0.00000000000E+00 0. -1.
        -14    1    4    4    0    0 -0.10990100134E+02  0.45536819432E+02 -0.62847525233E+02  0.78384919805E+02  0.00000000000E+00 0.  1.
</event>
<event>
12    1  0.8297444E-002  0.1969328E+03  0.7818608E-02  0.1152538E+00
         21   -1    0    0  501  502  0.00000000000E+00  0.00000000000E+00  0.21176753355E+03  0.21176753355E+03  0.00000000000E+00 0.  1.
         21   -1    0    0  502  503 -0.00000000000E+00 -0.00000000000E+00 -0.36991156161E+03  0.36991156161E+03  0.00000000000E+00 0.  1.
         -6    2    1    2    0  503  0.39003340741E+02 -0.88077811181E+02 -0.28625930877E+03  0.34745780672E+03  0.17176604490E+03 0.  0.
        -24    2    3    3    0    0  0.57217936595E+02 -0.11500991986E+02 -0.81938985222E+02  0.12844943849E+03  0.79869242289E+02 0.  0.
          6    2    1    2  501    0 -0.39003340741E+02  0.88077811181E+02  0.12811528070E+03  0.23422128844E+03  0.17078385579E+03 0.  0.
         24    2    5    5    0    0 -0.35652762011E+02  0.12394013625E+03  0.73520928462E+02  0.16864716219E+03  0.80026630453E+02 0.  0.
          5    1    5    5  501    0 -0.33505787304E+01 -0.35862325069E+02  0.54594352238E+02  0.65574126250E+02  0.47000000000E+01 0. -1.
        -11    1    6    6    0    0 -0.60236273348E+02  0.10332318793E+03  0.55521270533E+02  0.13185864125E+03  0.00000000000E+00 0.  1.
         12    1    6    6    0    0  0.24583511337E+02  0.20616948323E+02  0.17999657929E+02  0.36788520946E+02  0.00000000000E+00 0. -1.
         -5    1    3    3    0  503 -0.18214595854E+02 -0.76576819195E+02 -0.20432032355E+03  0.21900836823E+03  0.47000000000E+01 0.  1.
         11    1    4    4    0    0  0.12111905470E+02 -0.42441878950E+02 -0.39261124623E+02  0.59071543484E+02  0.00000000000E+00 0. -1.
        -12    1    4    4    0    0  0.45106031125E+02  0.30940886964E+02 -0.42677860599E+02  0.69377895004E+02  0.00000000000E+00 0.  1.
</event>
<event>
12    1  0.8297444E-002  0.2176399E+03  0.7818608E-02  0.1135772E+00
         21   -1    0    0  503  502  0.00000000000E+00  0.00000000000E+00  0.11716425037E+04  0.11716425037E+04  0.00000000000E+00 0. -1.
         21   -1    0    0  501  503 -0.00000000000E+00 -0.00000000000E+00 -0.60339057451E+02  0.60339057451E+02  0.00000000000E+00 0. -1.
          6    2    1    2  501    0  0.11540795233E+03 -0.65825225653E+02  0.20024568091E+03  0.29528876385E+03  0.17159593685E+03 0.  0.
         24    2    3    3    0    0  0.91312741617E+02 -0.96615478667E+01  0.19816704142E+03  0.23395892916E+03  0.83876349107E+02 0.  0.
         -6    2    1    2    0  502 -0.11540795233E+03  0.65825225653E+02  0.91105776532E+03  0.93669279728E+03  0.17238094131E+03 0.  0.
        -24    2    5    5    0    0 -0.15111569615E+02  0.76323158476E+01  0.20140081931E+03  0.21760945707E+03  0.80653419071E+02 0.  0.
          5    1    3    3  501    0  0.24095210710E+02 -0.56163677786E+02  0.20786394906E+01  0.61329834695E+02  0.47000000000E+01 0. -1.
        -13    1    4    4    0    0  0.98580209734E+02 -0.26773785982E+02  0.14296069702E+03  0.17570615885E+03  0.00000000000E+00 0.  1.
         14    1    4    4    0    0 -0.72674681172E+01  0.17112238115E+02  0.55206344401E+02  0.58252770305E+02  0.00000000000E+00 0. -1.
         -5    1    5    5    0  502 -0.10029638271E+03  0.58192909805E+02  0.70965694601E+03  0.71908334021E+03  0.47000000000E+01 0.  1.
         13    1    6    6    0    0 -0.36866620756E+01 -0.31103727172E+01  0.20186275651E+03  0.20192037629E+03  0.00000000000E+00 0. -1.
        -14    1    6    6    0    0 -0.11424907539E+02  0.10742688565E+02 -0.46193719897E+00  0.15689080784E+02  0.00000000000E+00 0.  1.
</event>
<event>
12    1  0.8297444E-002  0.1999552E+03  0.7818608E-02  0.1150262E+00
         21   -1    0    0  503  502  0.00000000000E+00  0.00000000000E+00  0.77885147610E+02  0.77885147610E+02  0.00000000000E+00 0.  1.
         21   -1    0    0  501  503 -0.00000000000E+00 -0.00000000000E+00 -0.54900998233E+03  0.54900998233E+03  0.00000000000E+00 0.  1.
          6    2    1    2  501    0 -0.79268309089E+02 -0.61819764788E+02 -0.15062431279E+03  0.25033932309E+03  0.17284948637E+03 0.  0.
         24    2    3    3    0    0 -0.97121759223E+02 -0.93216180838E+02 -0.93565442117E+02  0.18264674340E+03  0.80519863590E+02 0.  0.
         -6    2    1    2    0  502  0.79268309089E+02  0.61819764788E+02 -0.32050052193E+03  0.37655580685E+03  0.17020147758E+03 0.  0.
        -24    2    5    5    0    0  0.11342496506E+03  0.78613424819E+02 -0.25264329581E+03  0.29861097186E+03  0.79338416526E+02 0.  0.
          5    1    3    3  501    0  0.17853450133E+02  0.31396416050E+02 -0.57058870670E+02  0.67692579687E+02  0.47000000000E+01 0. -1.
        -11    1    4    4    0    0 -0.34663824520E+02  0.86749056903E+01 -0.10995340092E+02  0.37386257139E+02  0.00000000000E+00 0.  1.
         12    1    4    4    0    0 -0.62457934702E+02 -0.10189108653E+03 -0.82570102025E+02  0.14526048626E+03  0.00000000000E+00 0. -1.
         -5    1    5    5    0  502 -0.34156655973E+02 -0.16793660030E+02 -0.67857226122E+02  0.77944834989E+02  0.47000000000E+01 0.  1.
         11    1    6    6    0    0  0.41241345258E+02  0.18175082059E+02 -0.16114255293E+03  0.16732634142E+03  0.00000000000E+00 0. -1.
        -12    1    6    6    0    0  0.72183619803E+02  0.60438342760E+02 -0.91500742878E+02  0.13128463044E+03  0.00000000000E+00 0.  1.
</event>
<event>
12    1  0.8297444E-002  0.2259788E+03  0.7818608E-02  0.1129575E+00
         21   -1    0    0  503  502  0.00000000000E+00  0.00000000000E+00  0.27312878546E+02  0.27312878546E+02  0.00000000000E+00 0. -1.
         21   -1    0    0  501  503 -0.00000000000E+00 -0.00000000000E+00 -0.19179733319E+04  0.19179733319E+04  0.00000000000E+00 0.  1.
          6    2    1    2  501    0  0.98692404566E+02  0.10822097419E+03 -0.11057529901E+04  0.11286080434E+04  0.17208855423E+03 0.  0.
         24    2    3    3    0    0  0.66427632744E+02 -0.88657271984E+01 -0.49417252834E+03  0.50506729704E+03  0.79970339882E+02 0.  0.
         -6    2    1    2    0  502 -0.98692404566E+02 -0.10822097419E+03 -0.78490746320E+03  0.81667816701E+03  0.17155620860E+03 0.  0.
        -24    2    5    5    0    0 -0.78374942122E+02 -0.81670397274E+02 -0.28860745245E+03  0.31923116171E+03  0.76168153790E+02 0.  0.
          5    1    3    3  501    0  0.32264771822E+02  0.11708670139E+03 -0.61158046180E+03  0.62354074638E+03  0.47000000000E+01 0. -1.
        -11    1    4    4    0    0 -0.99090662568E+01 -0.16231462940E+02 -0.20560811268E+03  0.20648570407E+03  0.00000000000E+00 0.  1.
         12    1    4    4    0    0  0.76336699001E+02  0.73657357414E+01 -0.28856441566E+03  0.29858159297E+03  0.00000000000E+00 0. -1.
         -5    1    5    5    0  502 -0.20317462444E+02 -0.26550576920E+02 -0.49630001075E+03  0.49744700530E+03  0.47000000000E+01 0.  1.
         11    1    6    6    0    0  0.88705220601E+01 -0.36445575068E+02 -0.66367241321E+02  0.76233698744E+02  0.00000000000E+00 0. -1.
        -12    1    6    6    0    0 -0.87245464182E+02 -0.45224822206E+02 -0.22224021113E+03  0.24299746296E+03  0.00000000000E+00 0.  1.
</event>
<event>
12    1  0.8297444E-002  0.1968635E+03  0.7818608E-02  0.1153704E+00
         21   -1    0    0  501  502  0.00000000000E+00  0.00000000000E+00  0.63120721886E+02  0.63120721886E+02  0.00000000000E+00 0.  1.
         21   -1    0    0  502  503 -0.00000000000E+00 -0.00000000000E+00 -0.11358762495E+04  0.11358762495E+04  0.00000000000E+00 0. -1.
         -6    2    1    2    0  503  0.48418302306E+02 -0.68437518907E+02 -0.94548441217E+03  0.96457603473E+03  0.17157542691E+03 0.  0.
        -24    2    3    3    0    0  0.37840624321E+02  0.97876435832E+01 -0.72146023627E+03  0.72700502491E+03  0.80645662665E+02 0.  0.
          6    2    1    2  501    0 -0.48418302306E+02  0.68437518907E+02 -0.12727111540E+03  0.23442093661E+03  0.17812134267E+03 0.  0.
         24    2    5    5    0    0  0.34425359633E+02  0.41156252413E+02 -0.10814670111E+03  0.14500520507E+03  0.80323458832E+02 0.  0.
          5    1    5    5  501    0 -0.82843661939E+02  0.27281266494E+02 -0.19124414287E+02  0.89415731540E+02  0.47000000000E+01 0. -1.
        -13    1    6    6    0    0 -0.13612366301E+02  0.41303356379E+02 -0.74813677985E+02  0.86535253961E+02  0.00000000000E+00 0.  1.
         14    1    6    6    0    0  0.48037725934E+02 -0.14710396526E+00 -0.33333023126E+02  0.58469951113E+02  0.00000000000E+00 0. -1.
         -5    1    3    3    0  503  0.10577677986E+02 -0.78225162490E+02 -0.22402417590E+03  0.23757100982E+03  0.47000000000E+01 0.  1.
         13    1    4    4    0    0  0.37032325705E+02 -0.30606853369E+02 -0.44947162226E+03  0.45203198099E+03  0.00000000000E+00 0. -1.
        -14    1    4    4    0    0  0.80829861577E+00  0.40394496952E+02 -0.27198861402E+03  0.27497304392E+03  0.00000000000E+00 0.  1.
</event>
<event>
12    1  0.8297444E-002  0.1712707E+03  0.7818608E-02  0.1176592E+00
         21   -1    0    0  503  502  0.00000000000E+00  0.00000000000E+00  0.25608673391E+03  0.25608673391E+03  0.00000000000E+00 0.  1.
         21   -1    0    0  501  503 -0.00000000000E+00 -0.00000000000E+00 -0.70882778702E+03  0.70882778702E+03  0.00000000000E+00 0.  1.
          6    2    1    2  501    0 -0.82202349612E+00 -0.69564500454E+01 -0.66816328405E+03  0.68970476994E+03  0.17088425204E+03 0.  0.
         24    2    3    3    0    0  0.17799707858E+02  0.54611962309E+02 -0.50287136727E+03  0.51227606303E+03  0.79043384989E+02 0.  0.
         -6    2    1    2    0  502  0.82202349612E+00  0.69564500454E+01  0.21542223095E+03  0.27520975099E+03  0.17112744238E+03 0.  0.
        -24    2    5    5    0    0 -0.19389394673E+02  0.40926872023E+02  0.51078021593E+02  0.10611332837E+03  0.81241102216E+02 0.  0.
          5    1    3    3  501    0 -0.18621731354E+02 -0.61568412355E+02 -0.16529191679E+03  0.17742870690E+03  0.47000000000E+01 0. -1.
        -13    1    4    4    0    0  0.13362067174E+02  0.53585164060E+02 -0.50444346473E+03  0.50745750931E+03  0.00000000000E+00 0.  1.
         14    1    4    4    0    0  0.44376406841E+01  0.10267982493E+01  0.15720974663E+01  0.48185537176E+01  0.00000000000E+00 0. -1.
         -5    1    5    5    0  502  0.20211418169E+02 -0.33970421977E+02  0.16434420936E+03  0.16909642262E+03  0.47000000000E+01 0.  1.
         13    1    6    6    0    0 -0.15267150363E+02 -0.23708389528E+01 -0.18473210848E+02  0.24082489003E+02  0.00000000000E+00 0. -1.
        -14    1    6    6    0    0 -0.41222443098E+01  0.43297710976E+02  0.69551232440E+02  0.82030839370E+02  0.00000000000E+00 0.  1.
</event>
<event>
12    1  0.8297444E-002  0.1858314E+03  0.7818608E-02  0.1162420E+00
         21   -1    0    0  503  502  0.00000000000E+00  0.00000000000E+00  0.18928274905E+03  0.18928274905E+03  0.00000000000E+00 0. -1.
         21   -1    0    0  501  503 -0.00000000000E+00 -0.00000000000E+00 -0.18186092698E+03  0.18186092698E+03  0.00000000000E+00 0. -1.
          6    2    1    2  501    0  0.16362206045E+01  0.70916415452E+02  0.59131427690E+01  0.18530617090E+03  0.17108944011E+03 0.  0.
         24    2    3    3    0    0  0.36895765227E+02 -0.17066139187E+02 -0.68206965474E+01  0.89554376808E+02  0.79504175398E+02 0.  0.
         -6    2    1    2    0  502 -0.16362206045E+01 -0.70916415452E+02  0.15086792946E+01  0.18583750513E+03  0.17175996915E+03 0.  0.
        -24    2    5    5    0    0 -0.18751753777E+02 -0.36678166825E+02 -0.63414117165E+02  0.11032420402E+03  0.80331584984E+02 0.  0.
          5    1    3    3  501    0 -0.35259544622E+02  0.87982554639E+02  0.12733839316E+02  0.95751794090E+02  0.47000000000E+01 0. -1.
        -13    1    4    4    0    0  0.61985742172E+02 -0.74813021036E+01 -0.48622635302E+01  0.62624625511E+02  0.00000000000E+00 0.  1.
         14    1    4    4    0    0 -0.25089976945E+02 -0.95848370835E+01 -0.19584330172E+01  0.26929751297E+02  0.00000000000E+00 0. -1.
         -5    1    5    5    0  502  0.17115533172E+02 -0.34238248627E+02  0.64922796459E+02  0.75513301113E+02  0.47000000000E+01 0.  1.
         11    1    6    6    0    0 -0.26297017464E+01 -0.42378317080E+02 -0.77368026955E+02  0.88253321098E+02  0.00000000000E+00 0. -1.
        -12    1    6    6    0    0 -0.16122052031E+02  0.57001502554E+01  0.13953909791E+02  0.22070882924E+02  0.00000000000E+00 0.  1.
</event>
<event>
12    1  0.8297444E-002  0.1757868E+03  0.7818608E-02  0.1172001E+00
         21   -1    0    0  503  502  0.00000000000E+00  0.00000000000E+00  0.95145075373E+02  0.95145075373E+02  0.00000000000E+00 0. -1.
         21   -1    0    0  501  503 -0.00000000000E+00 -0.00000000000E+00 -0.47080537436E+03  0.47080537436E+03  0.00000000000E+00 0. -1.
          6    2    1    2  501    0  0.34041122573E+02  0.53142674153E+01 -0.34573532922E+03  0.38785812306E+03  0.17237739495E+03 0.  0.
         24    2    3    3    0    0  0.55728100516E+02 -0.46644984105E+02 -0.15625330755E+03  0.19013201106E+03  0.80334984788E+02 0.  0.
         -6    2    1    2    0  502 -0.34041122573E+02 -0.53142674153E+01 -0.29924969768E+02  0.17809232667E+03  0.17214625625E+03 0.  0.
        -24    2    5    5    0    0 -0.56806212699E+02 -0.60696844166E+02 -0.12671193567E+02  0.11560023174E+03  0.79320878328E+02 0.  0.
          5    1    3    3  501    0 -0.21686977942E+02  0.51959251520E+02 -0.18948202167E+03  0.19772611200E+03  0.47000000000E+01 0. -1.
        -13    1    4    4    0    0  0.34336328169E+02 -0.65331060219E+02 -0.13762098200E+03  0.15616230514E+03  0.00000000000E+00 0.  1.
         14    1    4    4    0    0  0.21391772347E+02  0.18686076115E+02 -0.18632325551E+02  0.33969705917E+02  0.00000000000E+00 0. -1.
         -5    1    5    5    0  502  0.22765090126E+02  0.55382576750E+02 -0.17253776201E+02  0.62492094933E+02  0.47000000000E+01 0.  1.
         11    1    6    6    0    0  0.11456844718E+02 -0.24153609150E+02 -0.25699693821E+02  0.37082750551E+02  0.00000000000E+00 0. -1.
        -12    1    6    6    0    0 -0.68263057417E+02 -0.36543235015E+02  0.13028500254E+02  0.78517481188E+02  0.00000000000E+00 0.  1.
</event>
<event>
12    1  0.8297444E-002  0.1955816E+03  0.7818608E-02  0.1153794E+00
         21   -1    0    0  503  502  0.00000000000E+00  0.00000000000E+00  0.24065395979E+03  0.24065395979E+03  0.00000000000E+00 0. -1.
         21   -1    0    0  501  503 -0.00000000000E+00 -0.00000000000E+00 -0.34305052306E+03  0.34305052306E+03  0.00000000000E+00 0.  1.
          6    2    1    2  501    0  0.27729360958E+01  0.92600289027E+02 -0.26566412288E+03  0.32989328801E+03  0.17224881012E+03 0.  0.
         24    2    3    3    0    0 -0.17728283952E+02 -0.95334748982E+01 -0.11709601260E+03  0.14838246424E+03  0.88885883751E+02 0.  0.
         -6    2    1    2    0  502 -0.27729360958E+01 -0.92600289027E+02  0.16326755961E+03  0.25381119484E+03  0.17082541938E+03 0.  0.
        -24    2    5    5    0    0 -0.20897222869E+02 -0.11735605294E+02  0.15655883823E+02  0.84462785714E+02  0.79463432578E+02 0.  0.
          5    1    3    3  501    0  0.20501220048E+02  0.10213376393E+03 -0.14856811028E+03  0.18151082378E+03  0.47000000000E+01 0. -1.
        -13    1    4    4    0    0  0.15064045969E+02  0.26506254176E+02 -0.84310301098E+02  0.89653409655E+02  0.00000000000E+00 0.  1.
         14    1    4    4    0    0 -0.32792329921E+02 -0.36039729074E+02 -0.32785711505E+02  0.58729054583E+02  0.00000000000E+00 0. -1.
         -5    1    5    5    0  502  0.18124286773E+02 -0.80864683734E+02  0.14761167578E+03  0.16934840913E+03  0.47000000000E+01 0.  1.
         11    1    6    6    0    0 -0.19056940827E+02 -0.22158341190E+02  0.44780963229E+02  0.53474234409E+02  0.00000000000E+00 0. -1.
        -12    1    6    6    0    0 -0.18402820417E+01  0.10422735896E+02 -0.29125079406E+02  0.30988551305E+02  0.00000000000E+00 0.  1.
</event>
<event>
12    1  0.8297444E-002  0.2088652E+03  0.7818608E-02  0.1142655E+00
         21   -1    0    0  501  502  0.00000000000E+00  0.00000000000E+00  0.25153932450E+03  0.25153932450E+03  0.00000000000E+00 0.  1.
         21   -1    0    0  502  503 -0.00000000000E+00 -0.00000000000E+00 -0.17770669842E+03  0.17770669842E+03  0.00000000000E+00 0.  1.
         -6    2    1    2    0  503 -0.92170818167E+02  0.69256929774E+02  0.73024073277E+02  0.22037922497E+03  0.17303902877E+03 0.  0.
        -24    2    3    3    0    0 -0.59050902138E+02  0.85751117027E+02 -0.10984183959E+02  0.12846369671E+03  0.74444650321E+02 0.  0.
          6    2    1    2  501    0  0.92170818167E+02 -0.69256929774E+02  0.80855281098E+00  0.20886679795E+03  0.17416286483E+03 0.  0.
         24    2    5    5    0    0  0.10822926611E+03  0.12839603616E+01  0.57177721821E+01  0.13620262957E+03  0.82481760327E+02 0.  0.
          5    1    5    5  501    0 -0.16058447941E+02 -0.70540890136E+02 -0.49092193711E+01  0.72664168379E+02  0.47000000000E+01 0. -1.
        -13    1    6    6    0    0  0.11945801147E+03 -0.94463232832E+01  0.54392186614E+00  0.11983215503E+03  0.00000000000E+00 0.  1.
         14    1    6    6    0    0 -0.11228745364E+02  0.10730283645E+02  0.51738503160E+01  0.16370474539E+02  0.00000000000E+00 0. -1.
         -5    1    3    3    0  503 -0.33119916029E+02 -0.16494187253E+02  0.84008257236E+02  0.91915528257E+02  0.47000000000E+01 0.  1.
         13    1    4    4    0    0 -0.74952725828E+00  0.53808710011E+02  0.16854765768E+02  0.56391685498E+02  0.00000000000E+00 0. -1.
        -14    1    4    4    0    0 -0.58301374880E+02  0.31942407016E+02 -0.27838949727E+02  0.72072011216E+02  0.00000000000E+00 0.  1.
</event>
<event>
12    1  0.8297444E-002  0.1996700E+03  0.7818608E-02  0.1150042E+00
         21   -1    0    0  501  502  0.00000000000E+00  0.00000000000E+00  0.11913951114E+04  0.11913951114E+04  0.00000000000E+00 0. -1.
         21   -1    0    0  502  503 -0.00000000000E+00 -0.00000000000E+00 -0.40258123769E+02  0.40258123769E+02  0.00000000000E+00 0. -1.
         -6    2    1    2    0  503 -0.47369393387E+02 -0.89730481347E+02  0.32234642619E+03  0.37917717408E+03  0.17196712520E+03 0.  0.
        -24    2    3    3    0    0 -0.16714494053E+01 -0.23162341114E+02  0.27076356265E+03  0.28324750614E+03  0.79855839429E+02 0.  0.
          6    2    1    2  501    0  0.47369393387E+02  0.89730481347E+02  0.82879056146E+03  0.85247606111E+03  0.17183195654E+03 0.  0.
         24    2    5    5    0    0  0.84230537436E+01  0.57627341747E+02  0.24915830071E+03  0.27063151431E+03  0.88145898213E+02 0.  0.
          5    1    5    5  501    0  0.38946339644E+02  0.32103139599E+02  0.57963226074E+03  0.58184454680E+03  0.47000000000E+01 0. -1.
        -11    1    6    6    0    0 -0.23185365484E+02  0.32223230030E+01  0.15884862336E+03  0.16056409835E+03  0.00000000000E+00 0.  1.
         12    1    6    6    0    0  0.31608419227E+02  0.54405018744E+02  0.90309677355E+02  0.11006741595E+03  0.00000000000E+00 0. -1.
         -5    1    3    3    0  503 -0.45697943982E+02 -0.66568140233E+02  0.51582863544E+02  0.95929667932E+02  0.47000000000E+01 0.  1.
         13    1    4    4    0    0 -0.38653716466E+02 -0.11740114521E+02  0.18170493056E+03  0.18614140290E+03  0.00000000000E+00 0. -1.
        -14    1    4    4    0    0  0.36982267060E+02 -0.11422226593E+02  0.89058632088E+02  0.97106103240E+02  0.00000000000E+00 0.  1.
</event>
<event>
12    1  0.8297444E-002  0.2424901E+03  0.7818608E-02  0.1118258E+00
         21   -1    0    0  503  502  0.00000000000E+00  0.00000000000E+00  0.58768507370E+03  0.58768507370E+03  0.00000000000E+00 0. -1.
         21   -1    0    0  501  503 -0.00000000000E+00 -0.00000000000E+00 -0.12774395758E+03  0.12774395758E+03  0.00000000000E+00 0. -1.
          6    2    1    2  501    0 -0.11152901001E+03 -0.12885288216E+03  0.62327827380E+02  0.24970618197E+03  0.17154193054E+03 0.  0.
         24    2    3    3    0    0 -0.93798216451E+02 -0.33008222110E+02  0.79823318549E+02  0.15056606844E+03  0.80067038445E+02 0.  0.
         -6    2    1    2    0  502  0.11152901001E+03  0.12885288216E+03  0.39761328874E+03  0.46572284931E+03  0.17250988282E+03 0.  0.
        -24    2    5    5    0    0  0.32418399037E+02  0.13678537362E+03  0.25894952681E+03  0.30581305579E+03  0.81887585290E+02 0.  0.
          5    1    3    3  501    0 -0.17730793562E+02 -0.95844660048E+02 -0.17495491168E+02  0.99140113533E+02  0.47000000000E+01 0. -1.
        -13    1    4    4    0    0 -0.18345687264E+02  0.25865790233E+02  0.24019453614E+02  0.39781119862E+02  0.00000000000E+00 0.  1.
         14    1    4    4    0    0 -0.75452529186E+02 -0.58874012342E+02  0.55803864934E+02  0.11078494858E+03  0.00000000000E+00 0. -1.
         -5    1    5    5    0  502  0.79110610975E+02 -0.79324914654E+01  0.13866376193E+03  0.15990979352E+03  0.47000000000E+01 0.  1.
         13    1    6    6    0    0  0.59613925084E+02  0.10377063964E+03  0.18331176574E+03  0.21891863597E+03  0.00000000000E+00 0. -1.
        -14    1    6    6    0    0 -0.27195526047E+02  0.33014733982E+02  0.75637761067E+02  0.86894419821E+02  0.00000000000E+00 0.  1.
</event>
<event>
12    1  0.8297444E-002  0.1877593E+03  0.7818608E-02  0.1160899E+00
         21   -1    0    0  503  502  0.00000000000E+00  0.00000000000E+00  0.19537863020E+03  0.19537863020E+03  0.00000000000E+00 0. -1.
         21   -1    0    0  501  503 -0.00000000000E+00 -0.00000000000E+00 -0.20172944676E+03  0.20172944676E+03  0.00000000000E+00 0.  1.
          6    2    1    2  501    0 -0.22497450753E+01 -0.78997208412E+02  0.63827516151E+02  0.19666214759E+03  0.16839367027E+03 0.  0.
         24    2    3    3    0    0 -0.65480645909E+02 -0.48495444495E+02  0.25929045955E+02  0.11674413669E+03  0.79481789753E+02 0.  0.
         -6    2    1    2    0  502  0.22497450753E+01  0.78997208412E+02 -0.70178332708E+02  0.20044592937E+03  0.17031720973E+03 0.  0.
        -24    2    5    5    0    0  0.46306045134E+02  0.47063352332E+02  0.90623186584E+01  0.10420716604E+03  0.80111165797E+02 0.  0.
          5    1    3    3  501    0  0.63230900833E+02 -0.30501763917E+02  0.37898470195E+02  0.79918010895E+02  0.47000000000E+01 0. -1.
        -11    1    4    4    0    0 -0.16086214299E+02  0.80448755728E+01 -0.21430209672E+02  0.27977494528E+02  0.00000000000E+00 0.  1.
         12    1    4    4    0    0 -0.49394431609E+02 -0.56540320068E+02  0.47359255628E+02  0.88766642164E+02  0.00000000000E+00 0. -1.
         -5    1    5    5    0  502 -0.44056300058E+02  0.31933856081E+02 -0.79240651366E+02  0.96238763334E+02  0.47000000000E+01 0.  1.
         11    1    6    6    0    0  0.20621434648E+02  0.66929018145E+02  0.13836001489E+02  0.71387477711E+02  0.00000000000E+00 0. -1.
        -12    1    6    6    0    0  0.25684610486E+02 -0.19865665813E+02 -0.47736828305E+01  0.32819688325E+02  0.00000000000E+00 0.  1.
</event>
<event>
12    1  0.8297444E-002  0.1799247E+03  0.7818608E-02  0.1168184E+00
         21   -1    0    0  503  502  0.00000000000E+00  0.00000000000E+00  0.73524252616E+03  0.73524252616E+03  0.00000000000E+00 0. -1.
         21   -1    0    0  501  503 -0.00000000000E+00 -0.00000000000E+00 -0.56451057241E+02  0.56451057241E+02  0.00000000000E+00 0. -1.
          6    2    1    2  501    0  0.49055149416E+02  0.28335594484E+02  0.52644739362E+03  0.55593602902E+03  0.16943640846E+03 0.  0.
         24    2    3    3    0    0  0.74968488658E+01 -0.42586708513E+02  0.21287716239E+03  0.23173632926E+03  0.80716847981E+02 0.  0.
         -6    2    1    2    0  502 -0.49055149416E+02 -0.28335594484E+02  0.15234407530E+03  0.23575755438E+03  0.17077351543E+03 0.  0.
        -24    2    5    5    0    0  0.34721594287E+02 -0.33757550755E+02  0.97826454562E+02  0.13554676970E+03  0.80360128310E+02 0.  0.
          5    1    3    3  501    0  0.41558300551E+02  0.70922302997E+02  0.31357023123E+03  0.32419969975E+03  0.47000000000E+01 0. -1.
        -13    1    4    4    0    0  0.37306992690E+02 -0.30800756052E+02  0.68613609011E+02  0.83954306730E+02  0.00000000000E+00 0.  1.
         14    1    4    4    0    0 -0.29810143825E+02 -0.11785952460E+02  0.14426355338E+03  0.14778202253E+03  0.00000000000E+00 0. -1.
         -5    1    5    5    0  502 -0.83776743703E+02  0.54219562705E+01  0.54517620733E+02  0.10021078468E+03  0.47000000000E+01 0.  1.
         13    1    6    6    0    0  0.23375375178E+02 -0.44443699816E+02  0.10647456423E+03  0.11772206015E+03  0.00000000000E+00 0. -1.
        -14    1    6    6    0    0  0.11346219109E+02  0.10686149061E+02 -0.86481096679E+01  0.17824709553E+02  0.00000000000E+00 0.  1.
</event>
<event>
12    1  0.8297444E-002  0.2029909E+03  0.7818608E-02  0.1147419E+00
         21   -1    0    0  503  502  0.00000000000E+00  0.00000000000E+00  0.17937059511E+03  0.17937059511E+03  0.00000000000E+00 0. -1.
         21   -1    0    0  501  503 -0.00000000000E+00 -0.00000000000E+00 -0.40910089599E+03  0.40910089599E+03  0.00000000000E+00 0. -1.
          6    2    1    2  501    0  0.95051802605E+02  0.49503327527E+02 -0.31009230930E+03  0.37015212368E+03  0.17137657295E+03 0.  0.
         24    2    3    3    0    0  0.12022586522E+03 -0.16179759406E+01 -0.20023327258E+03  0.24630455993E+03  0.78202917315E+02 0.  0.
         -6    2    1    2    0  502 -0.95051802605E+02 -0.49503327527E+02  0.80362008420E+02  0.21831936742E+03  0.17239451609E+03 0.  0.
        -24    2    5    5    0    0  0.10131181325E+02  0.49476262069E+01  0.51933501533E+02  0.96423360616E+02  0.80456547595E+02 0.  0.
          5    1    3    3  501    0 -0.25174062618E+02  0.51121303468E+02 -0.10985903672E+03  0.12384756375E+03  0.47000000000E+01 0. -1.
        -13    1    4    4    0    0  0.11746580073E+02 -0.25241368571E+01  0.58869270568E+01  0.13379436477E+02  0.00000000000E+00 0.  1.
         14    1    4    4    0    0  0.10847928515E+03  0.90616091653E+00 -0.20612019964E+03  0.23292512345E+03  0.00000000000E+00 0. -1.
         -5    1    5    5    0  502 -0.10518298393E+03 -0.54450953734E+02  0.28428506887E+02  0.12189600680E+03  0.47000000000E+01 0.  1.
         13    1    6    6    0    0 -0.19349154386E+02  0.19909984523E+02  0.56593403331E+02  0.63036581124E+02  0.00000000000E+00 0. -1.
        -14    1    6    6    0    0  0.29480335711E+02 -0.14962358316E+02 -0.46599017987E+01  0.33386779491E+02  0.00000000000E+00 0.  1.
</event>
<event>
12    1  0.8297444E-002  0.1945105E+03  0.7818608E-02  0.1154704E+00
         21   -1    0    0  501  502  0.00000000000E+00  0.00000000000E+00  0.69054805882E+03  0.69054805882E+03  0.00000000000E+00 0.  1.
         21   -1    0    0  502  503 -0.00000000000E+00 -0.00000000000E+00 -0.10134328790E+03  0.10134328790E+03  0.00000000000E+00 0.  1.
         -6    2    1    2    0  503  0.65945549550E+02 -0.60077579796E+02  0.56341847462E+03  0.59567904656E+03  0.17156636578E+03 0.  0.
        -24    2    3    3    0    0  0.38358432572E+02 -0.63753685076E+02  0.55608422029E+03  0.56651667252E+03  0.78584848923E+02 0.  0.
          6    2    1    2  501    0 -0.65945549550E+02  0.60077579796E+02  0.25786296295E+02  0.19621230016E+03  0.17284733888E+03 0.  0.
         24    2    5    5    0    0 -0.10166248822E+03  0.66156875130E+02  0.44952022099E+02  0.15495611777E+03  0.85315417746E+02 0.  0.
          5    1    5    5  501    0  0.35716938671E+02 -0.60792953336E+01 -0.19165725804E+02  0.41256182390E+02  0.47000000000E+01 0. -1.
        -13    1    6    6    0    0 -0.45726724092E+02  0.67818767582E+02 -0.21330283036E+01  0.81822175125E+02  0.00000000000E+00 0.  1.
         14    1    6    6    0    0 -0.55935764129E+02 -0.16618924521E+01  0.47085050403E+02  0.73133942644E+02  0.00000000000E+00 0. -1.
         -5    1    3    3    0  503  0.27587116978E+02  0.36761052801E+01  0.73342543373E+01  0.29162374044E+02  0.47000000000E+01 0.  1.
         13    1    4    4    0    0 -0.95068862503E+01  0.66403271600E+01  0.20242138878E+03  0.20275328226E+03  0.00000000000E+00 0. -1.
        -14    1    4    4    0    0  0.47865318822E+02 -0.70394012236E+02  0.35366283150E+03  0.36376339026E+03  0.00000000000E+00 0.  1.
</event>
<event>
12    1  0.8297444E-002  0.1990909E+03  0.7818608E-02  0.1150616E+00
         21   -1    0    0  501  502  0.00000000000E+00  0.00000000000E+00  0.41159046736E+03  0.41159046736E+03  0.00000000000E+00 0. -1.
         21   -1    0    0  502  503 -0.00000000000E+00 -0.00000000000E+00 -0.26686282830E+03  0.26686282830E+03  0.00000000000E+00 0.  1.
         -6    2    1    2    0  503  0.95293288879E+02 -0.25725148387E+02 -0.19899535489E+03  0.28148952162E+03  0.17290056492E+03 0.  0.
        -24    2    3    3    0    0  0.50393086343E+02 -0.30985712097E+02 -0.26515045053E+02  0.10312122567E+03  0.80195773362E+02 0.  0.
          6    2    1    2  501    0 -0.95293288879E+02  0.25725148387E+02  0.34372299395E+03  0.39696377405E+03  0.17231409453E+03 0.  0.
         24    2    5    5    0    0  0.17823213020E+02  0.11373790719E+02  0.12061462273E+03  0.14636301631E+03  0.80169915121E+02 0.  0.
          5    1    5    5  501    0 -0.11311650190E+03  0.14351357669E+02  0.22310837122E+03  0.25060075774E+03  0.47000000000E+01 0. -1.
        -13    1    6    6    0    0  0.97975278629E+01 -0.34722503094E+02  0.54857719512E+02  0.65658306127E+02  0.00000000000E+00 0.  1.
         14    1    6    6    0    0  0.80256851572E+01  0.46096293813E+02  0.65756903213E+02  0.80704710183E+02  0.00000000000E+00 0. -1.
         -5    1    3    3    0  503  0.44900202536E+02  0.52605637094E+01 -0.17248030983E+03  0.17836829595E+03  0.47000000000E+01 0.  1.
         13    1    4    4    0    0  0.50652800012E+02  0.12254015655E+02  0.53522486369E+00  0.52116729698E+02  0.00000000000E+00 0. -1.
        -14    1    4    4    0    0 -0.25971366878E+00 -0.43239727752E+02 -0.27050269916E+02  0.51004495976E+02  0.00000000000E+00 0.  1.
</event>
<event>
12    1  0.8297444E-002  0.1965266E+03  0.7818608E-02  0.1152767E+00
         21   -1    0    0  501  502  0.00000000000E+00  0.00000000000E+00  0.15381855042E+03  0.15381855042E+03  0.00000000000E+00 0. -1.
         21   -1    0    0  502  503 -0.00000000000E+00 -0.00000000000E+00 -0.46998206523E+03  0.46998206523E+03  0.00000000000E+00 0. -1.
         -6    2    1    2    0  503  0.68076153847E+02  0.66472730401E+02 -0.37118674623E+03  0.42000274102E+03  0.17195846965E+03 0.  0.
        -24    2    3    3    0    0  0.33335591834E+02  0.91493312734E+02 -0.34985608174E+03  0.37194003785E+03  0.80360598961E+02 0.  0.
          6    2    1    2  501    0 -0.68076153847E+02 -0.66472730401E+02  0.55023231418E+02  0.20379787463E+03  0.17161885415E+03 0.  0.
         24    2    5    5    0    0 -0.21683614815E+02  0.22152241453E+02 -0.52564616119E+01  0.86911670547E+02  0.81025348724E+02 0.  0.
          5    1    5    5  501    0 -0.46392539032E+02 -0.88624971853E+02  0.60279693030E+02  0.11688620409E+03  0.47000000000E+01 0. -1.
        -13    1    6    6    0    0 -0.21506553446E+01  0.45123431186E+01 -0.41677517369E+02  0.41976207700E+02  0.00000000000E+00 0.  1.
         14    1    6    6    0    0 -0.19532959470E+02  0.17639898334E+02  0.36421055757E+02  0.44935462848E+02  0.00000000000E+00 0. -1.
         -5    1    3    3    0  503  0.34740562013E+02 -0.25020582333E+02 -0.21330664488E+02  0.48062703178E+02  0.47000000000E+01 0.  1.
         11    1    4    4    0    0  0.41353401725E+02  0.82122866151E+01 -0.13205105539E+03  0.13861827699E+03  0.00000000000E+00 0. -1.
        -12    1    4    4    0    0 -0.80178098910E+01  0.83281026118E+02 -0.21780502635E+03  0.23332176086E+03  0.00000000000E+00 0.  1.
</event>
<event>
12    1  0.8297444E-002  0.1750690E+03  0.7818608E-02  0.1172704E+00
         21   -1    0    0  503  502  0.00000000000E+00  0.00000000000E+00  0.21072366444E+03  0.21072366444E+03  0.00000000000E+00 0. -1.
         21   -1    0    0  501  503 -0.00000000000E+00 -0.00000000000E+00 -0.21032820468E+03  0.21032820468E+03  0.00000000000E+00 0. -1.
          6    2    1    2  501    0  0.21008955553E+02 -0.25953238417E+02 -0.11685269240E+03  0.21034758279E+03  0.17168752740E+03 0.  0.
         24    2    3    3    0    0  0.56232084307E+02 -0.65383226557E+02 -0.69764374002E+02  0.13939131109E+03  0.84414786062E+02 0.  0.
         -6    2    1    2    0  502 -0.21008955553E+02  0.25953238417E+02  0.11724815216E+03  0.21070428634E+03  0.17185523064E+03 0.  0.
        -24    2    5    5    0    0 -0.65071279736E+02  0.54722996314E+02  0.10469709421E+03  0.15640137262E+03  0.79189835525E+02 0.  0.
          5    1    3    3  501    0 -0.35223128755E+02  0.39429988140E+02 -0.47088318401E+02  0.70956271702E+02  0.47000000000E+01 0. -1.
        -13    1    4    4    0    0  0.23723491867E+02  0.16259064753E+02 -0.33956232455E+02  0.44499291855E+02  0.00000000000E+00 0.  1.
         14    1    4    4    0    0  0.32508592440E+02 -0.81642291310E+02 -0.35808141547E+02  0.94892019231E+02  0.00000000000E+00 0. -1.
         -5    1    5    5    0  502  0.44062324183E+02 -0.28769757897E+02  0.12551057952E+02  0.54302913711E+02  0.47000000000E+01 0.  1.
         11    1    6    6    0    0 -0.49265600696E+02  0.14421822893E+02  0.10027066876E+02  0.52303254752E+02  0.00000000000E+00 0. -1.
        -12    1    6    6    0    0 -0.15805679040E+02  0.40301173420E+02  0.94670027334E+02  0.10409811787E+03  0.00000000000E+00 0.  1.
</event>
<event>
12    1  0.8297444E-002  0.1889780E+03  0.7818608E-02  0.1159676E+00
         21   -1    0    0  501  502  0.00000000000E+00  0.00000000000E+00  0.20995014270E+03  0.20995014270E+03  0.00000000000E+00 0. -1.
         21   -1    0    0  502  503 -0.00000000000E+00 -0.00000000000E+00 -0.18552899282E+03  0.18552899282E+03  0.00000000000E+00 0. -1.
         -6    2    1    2    0  503  0.77687906401E+02 -0.96243726076E+01 -0.46922770812E+02  0.19348250837E+03  0.17060391343E+03 0.  0.
        -24    2    3    3    0    0  0.74303554670E+02  0.31384420319E+02  0.19209471029E+02  0.11545214028E+03  0.80337991278E+02 0.  0.
          6    2    1    2  501    0 -0.77687906401E+02  0.96243726076E+01  0.71343920689E+02  0.20199662714E+03  0.17200186920E+03 0.  0.
         24    2    5    5    0    0 -0.94328358147E+02 -0.24866410409E+02  0.62507132678E+01  0.12632804449E+03  0.80022033791E+02 0.  0.
          5    1    5    5  501    0  0.16640451746E+02  0.34490783016E+02  0.65093207421E+02  0.75668582646E+02  0.47000000000E+01 0. -1.
        -11    1    6    6    0    0 -0.50991166711E+01 -0.97975055137E+01  0.30670255164E+02  0.32598414945E+02  0.00000000000E+00 0.  1.
         12    1    6    6    0    0 -0.89229241476E+02 -0.15068904895E+02 -0.24419541896E+02  0.93729629549E+02  0.00000000000E+00 0. -1.
         -5    1    3    3    0  503  0.33843517305E+01 -0.41008792926E+02 -0.66132241841E+02  0.78030368094E+02  0.47000000000E+01 0.  1.
         13    1    4    4    0    0  0.73646745957E+02 -0.79753690122E+01  0.79169843705E+01  0.74499183502E+02  0.00000000000E+00 0. -1.
        -14    1    4    4    0    0  0.65680871299E+00  0.39359789331E+02  0.11292486659E+02  0.40952956777E+02  0.00000000000E+00 0.  1.
</event>
<event>
12    1  0.8297444E-002  0.2339506E+03  0.7818608E-02  0.1123939E+00
         21   -1    0    0  503  502  0.00000000000E+00  0.00000000000E+00  0.15641013743E+03  0.15641013743E+03  0.00000000000E+00 0. -1.
         21   -1    0    0  501  503 -0.00000000000E+00 -0.00000000000E+00 -0.34950594316E+03  0.34950594316E+03  0.00000000000E+00 0.  1.
          6    2    1    2  501    0 -0.13729643391E+03  0.78536233504E+02 -0.96901122036E+02  0.25322462578E+03  0.17237932856E+03 0.  0.
         24    2    3    3    0    0 -0.13393931548E+03  0.10815340182E+03 -0.11087193180E+03  0.21997225100E+03  0.80363594934E+02 0.  0.
         -6    2    1    2    0  502  0.13729643391E+03 -0.78536233504E+02 -0.96194683690E+02  0.25269145480E+03  0.17199216093E+03 0.  0.
        -24    2    5    5    0    0  0.67746583131E+02 -0.58685640709E+02  0.15121116576E+02  0.11985875865E+03  0.78127267377E+02 0.  0.
          5    1    3    3  501    0 -0.33571184297E+01 -0.29617168321E+02  0.13970809761E+02  0.33252374786E+02  0.47000000000E+01 0. -1.
        -13    1    4    4    0    0 -0.27974116385E+02 -0.11403761044E+01 -0.47378236993E+02  0.55032254049E+02  0.00000000000E+00 0.  1.
         14    1    4    4    0    0 -0.10596519910E+03  0.10929377793E+03 -0.63493694804E+02  0.16493999695E+03  0.00000000000E+00 0. -1.
         -5    1    5    5    0  502  0.69549850780E+02 -0.19850592795E+02 -0.11131580027E+03  0.13283269615E+03  0.47000000000E+01 0.  1.
         13    1    6    6    0    0  0.45170334141E+02 -0.75368684635E+02 -0.22083369092E+00  0.87868347416E+02  0.00000000000E+00 0. -1.
        -14    1    6    6    0    0  0.22576248990E+02  0.16683043926E+02  0.15341950267E+02  0.31990411236E+02  0.00000000000E+00 0.  1.
</event>
<event>
12    1  0.8297444E-002  0.2538043E+03  0.7818608E-02  0.1110935E+00
         21   -1    0    0  501  502  0.00000000000E+00  0.00000000000E+00  0.27089851793E+03  0.27089851793E+03  0.00000000000E+00 0.  1.
         21   -1    0    0  502  503 -0.00000000000E+00 -0.00000000000E+00 -0.26779333789E+03  0.26779333789E+03  0.00000000000E+00 0. -1.
         -6    2    1    2    0  503 -0.28819256645E+02 -0.18435469472E+03 -0.88706269275E+02  0.26879192794E+03  0.17193921978E+03 0.  0.
        -24    2    3    3    0    0  0.52836130049E+01 -0.60172904747E+01 -0.57972244173E+02  0.84580349123E+02  0.61064965506E+02 0.  0.
          6    2    1    2  501    0  0.28819256645E+02  0.18435469472E+03  0.91811449314E+02  0.26989992788E+03  0.17204483667E+03 0.  0.
         24    2    5    5    0    0  0.40812532100E+02  0.17365707463E+03  0.12560545858E+03  0.23218517222E+03  0.79440421879E+02 0.  0.
          5    1    5    5  501    0 -0.11993275455E+02  0.10697620086E+02 -0.33794009268E+02  0.37714755654E+02  0.47000000000E+01 0. -1.
        -13    1    6    6    0    0  0.62887558953E+02  0.98000217824E+02  0.76654744857E+02  0.13940888664E+03  0.00000000000E+00 0.  1.
         14    1    6    6    0    0 -0.22075026853E+02  0.75656856809E+02  0.48950713725E+02  0.92776285585E+02  0.00000000000E+00 0. -1.
         -5    1    3    3    0  503 -0.34102869650E+02 -0.17833740424E+03 -0.30734025101E+02  0.18421157882E+03  0.47000000000E+01 0.  1.
         11    1    4    4    0    0 -0.20044458127E+02  0.15918355735E+02 -0.37206535901E+02  0.45160831089E+02  0.00000000000E+00 0. -1.
        -12    1    4    4    0    0  0.25328071132E+02 -0.21935646210E+02 -0.20765708272E+02  0.39419518033E+02  0.00000000000E+00 0.  1.
</event>
<event>
12    1  0.8297444E-002  0.1743152E+03  0.7818608E-02  0.1173863E+00
         21   -1    0    0  503  502  0.00000000000E+00  0.00000000000E+00  0.42576306924E+03  0.42576306924E+03  0.00000000000E+00 0. -1.
         21   -1    0    0  501  503 -0.00000000000E+00 -0.00000000000E+00 -0.72385288880E+02  0.72385288880E+02  0.00000000000E+00 0. -1.
          6    2    1    2  501    0  0.98909677544E+01 -0.16183917916E+02  0.21430890807E+03  0.27515525631E+03  0.17152946265E+03 0.  0.
         24    2    3    3    0    0 -0.43069957816E+02  0.21791327692E+02  0.17714327285E+03  0.19998642396E+03  0.79277660312E+02 0.  0.
         -6    2    1    2    0  502 -0.98909677544E+01  0.16183917916E+02  0.13906887229E+03  0.22299310180E+03  0.17328018285E+03 0.  0.
        -24    2    5    5    0    0  0.74719302256E+01  0.82028144213E+01  0.16896430360E+03  0.18720211059E+03  0.79828431113E+02 0.  0.
          5    1    3    3  501    0  0.52960925570E+02 -0.37975245608E+02  0.37165635220E+02  0.75168832354E+02  0.47000000000E+01 0. -1.
        -11    1    4    4    0    0 -0.18923569023E+02 -0.15071122148E+02  0.14080868001E+03  0.14287170662E+03  0.00000000000E+00 0.  1.
         12    1    4    4    0    0 -0.24146388793E+02  0.36862449840E+02  0.36334592839E+02  0.57114717339E+02  0.00000000000E+00 0. -1.
         -5    1    5    5    0  502 -0.17362897980E+02  0.79811034944E+01 -0.29895431304E+02  0.35790991214E+02  0.47000000000E+01 0.  1.
         13    1    6    6    0    0 -0.32807580656E+02  0.62741668015E+01  0.11551303938E+03  0.12024543561E+03  0.00000000000E+00 0. -1.
        -14    1    6    6    0    0  0.40279510881E+02  0.19286476199E+01  0.53451264217E+02  0.66956674984E+02  0.00000000000E+00 0.  1.
</event>
<event>
12    1  0.8297444E-002  0.2112227E+03  0.7818608E-02  0.1141029E+00
         21   -1    0    0  501  502  0.00000000000E+00  0.00000000000E+00  0.51943552482E+02  0.51943552482E+02  0.00000000000E+00 0.  1.
         21   -1    0    0  502  503 -0.00000000000E+00 -0.00000000000E+00 -0.97072483240E+03  0.97072483240E+03  0.00000000000E+00 0.  1.
         -6    2    1    2    0  503 -0.92332913373E+02  0.74782074928E+02 -0.64168107201E+03  0.67555136051E+03  0.17463481006E+03 0.  0.
        -24    2    3    3    0    0 -0.83163140249E+02  0.72519810142E+02 -0.64878352790E+03  0.66283375615E+03  0.79077755705E+02 0.  0.
          6    2    1    2  501    0  0.92332913373E+02 -0.74782074928E+02 -0.27710020790E+03  0.34711702437E+03  0.17201156288E+03 0.  0.
         24    2    5    5    0    0  0.13118197230E+03 -0.52589455074E+02 -0.23100168885E+03  0.28270487323E+03  0.81153585609E+02 0.  0.
          5    1    5    5  501    0 -0.38849058925E+02 -0.22192619854E+02 -0.46098519052E+02  0.64412151137E+02  0.47000000000E+01 0. -1.
        -13    1    6    6    0    0  0.47267805071E+02  0.19530464203E+02 -0.57815950179E+02  0.77190469122E+02  0.00000000000E+00 0.  1.
         14    1    6    6    0    0  0.83914167227E+02 -0.72119919277E+02 -0.17318573867E+03  0.20551440411E+03  0.00000000000E+00 0. -1.
         -5    1    3    3    0  503 -0.91697731242E+01  0.22622647861E+01  0.71024558904E+01  0.12717604365E+02  0.47000000000E+01 0.  1.
         11    1    4    4    0    0  0.15090322096E+01 -0.13110996897E+02 -0.36321401276E+02  0.38644787598E+02  0.00000000000E+00 0. -1.
        -12    1    4    4    0    0 -0.84672172459E+02  0.85630807038E+02 -0.61246212663E+03  0.62418896855E+03  0.00000000000E+00 0.  1.
</event>
<event>
12    1  0.8297444E-002  0.2014638E+03  0.7818608E-02  0.1149624E+00
         21   -1    0    0  503  502  0.00000000000E+00  0.00000000000E+00  0.37549235034E+03  0.37549235034E+03  0.00000000000E+00 0. -1.
         21   -1    0    0  501  503 -0.00000000000E+00 -0.00000000000E+00 -0.16784967933E+03  0.16784967933E+03  0.00000000000E+00 0. -1.
          6    2    1    2  501    0  0.12831991234E+02  0.94138121706E+02 -0.61164636844E+02  0.21054404144E+03  0.17765425587E+03 0.  0.
         24    2    3    3    0    0 -0.45364661593E+02  0.79513088604E+02  0.46021697854E+01  0.12139189706E+03  0.79589753884E+02 0.  0.
         -6    2    1    2    0  502 -0.12831991234E+02 -0.94138121706E+02  0.26880730785E+03  0.33279798823E+03  0.17166970106E+03 0.  0.
        -24    2    5    5    0    0 -0.63038753836E+02 -0.17365515810E+02  0.16773022629E+03  0.19622047016E+03  0.78061504433E+02 0.  0.
          5    1    3    3  501    0  0.58196652828E+02  0.14625033102E+02 -0.65766806629E+02  0.89152144381E+02  0.47000000000E+01 0. -1.
        -13    1    4    4    0    0 -0.10444555501E+02 -0.16281542769E+02  0.68882254191E+00  0.19355925477E+02  0.00000000000E+00 0.  1.
         14    1    4    4    0    0 -0.34920106092E+02  0.95794631373E+02  0.39133472435E+01  0.10203597158E+03  0.00000000000E+00 0. -1.
         -5    1    5    5    0  502  0.50206762602E+02 -0.76772605896E+02  0.10107708156E+03  0.13657751807E+03  0.47000000000E+01 0.  1.
         11    1    6    6    0    0 -0.24845750186E+02  0.15946235502E+02  0.12927434639E+03  0.13260260316E+03  0.00000000000E+00 0. -1.
        -12    1    6    6    0    0 -0.38193003650E+02 -0.33311751312E+02  0.38455879895E+02  0.63617867002E+02  0.00000000000E+00 0.  1.
</event>
<event>
12    1  0.8297444E-002  0.1988068E+03  0.7818608E-02  0.1150859E+00
         21   -1    0    0  503  502  0.00000000000E+00  0.00000000000E+00  0.17356974699E+03  0.17356974699E+03  0.00000000000E+00 0. -1.
         21   -1    0    0  501  503 -0.00000000000E+00 -0.00000000000E+00 -0.31191203573E+03  0.31191203573E+03  0.00000000000E+00 0. -1.
          6    2    1    2  501    0  0.68357589159E+02 -0.69002147418E+02 -0.19579447381E+03  0.27903338046E+03  0.17346496792E+03 0.  0.
         24    2    3    3    0    0  0.79726787733E+02 -0.10413579785E+03 -0.12081822258E+03  0.19532459767E+03  0.79712172671E+02 0.  0.
         -6    2    1    2    0  502 -0.68357589159E+02  0.69002147418E+02  0.57452185066E+02  0.20644840226E+03  0.17287606220E+03 0.  0.
        -24    2    5    5    0    0 -0.95216349490E+02  0.96508148080E+02  0.55907496194E+02  0.16768696340E+03  0.81322160000E+02 0.  0.
          5    1    3    3  501    0 -0.11369198574E+02  0.35133650430E+02 -0.74976251227E+02  0.83708782793E+02  0.47000000000E+01 0. -1.
        -13    1    4    4    0    0 -0.14597050690E+02 -0.25611370782E+01 -0.12999390285E+02  0.19713382758E+02  0.00000000000E+00 0.  1.
         14    1    4    4    0    0  0.94323838423E+02 -0.10157466077E+03 -0.10781883230E+03  0.17561121491E+03  0.00000000000E+00 0. -1.
         -5    1    5    5    0  502  0.26858760331E+02 -0.27506000662E+02  0.15446888714E+01  0.38761438862E+02  0.47000000000E+01 0.  1.
         13    1    6    6    0    0 -0.83788612435E+02  0.88488698399E+02  0.12987981136E+02  0.12255394311E+03  0.00000000000E+00 0. -1.
        -14    1    6    6    0    0 -0.11427737055E+02  0.80194496803E+01  0.42919515058E+02  0.45133020287E+02  0.00000000000E+00 0.  1.
</event>
<event>
12    1  0.8297444E-002  0.2214849E+03  0.7818608E-02  0.1132807E+00
         21   -1    0    0  501  502  0.00000000000E+00  0.00000000000E+00  0.23749889726E+03  0.23749889726E+03  0.00000000000E+00 0. -1.
         21   -1    0    0  502  503 -0.00000000000E+00 -0.00000000000E+00 -0.35367480739E+03  0.35367480739E+03  0.00000000000E+00 0.  1.
         -6    2    1    2    0  503  0.13023159010E+03  0.51213578050E+02 -0.24880617748E+03  0.33301420202E+03  0.17149591002E+03 0.  0.
        -24    2    3    3    0    0  0.94320497509E+02  0.76093653466E+02 -0.96387051904E+02  0.17438789725E+03  0.80212683427E+02 0.  0.
          6    2    1    2  501    0 -0.13023159010E+03 -0.51213578050E+02  0.13263026736E+03  0.25815950263E+03  0.17167540110E+03 0.  0.
         24    2    5    5    0    0 -0.85231649126E+02 -0.69986753789E+02  0.23468914561E+02  0.13851119400E+03  0.80448624557E+02 0.  0.
          5    1    5    5  501    0 -0.44999940976E+02  0.18773175739E+02  0.10916135280E+03  0.11964830864E+03  0.47000000000E+01 0. -1.
        -11    1    6    6    0    0 -0.50625710317E+02 -0.22333960656E+02 -0.26430024072E+02  0.61321403409E+02  0.00000000000E+00 0.  1.
         12    1    6    6    0    0 -0.34605938809E+02 -0.47652793133E+02  0.49898938633E+02  0.77189790587E+02  0.00000000000E+00 0. -1.
         -5    1    3    3    0  503  0.35911092593E+02 -0.24880075416E+02 -0.15241912558E+03  0.15862630477E+03  0.47000000000E+01 0.  1.
         13    1    4    4    0    0 -0.12502367113E+02  0.17287029976E+02 -0.25848146305E+02  0.33515328675E+02  0.00000000000E+00 0. -1.
        -14    1    4    4    0    0  0.10682286462E+03  0.58806623490E+02 -0.70538905599E+02  0.14087256857E+03  0.00000000000E+00 0.  1.
</event>
<event>
12    1  0.8297444E-002  0.2321205E+03  0.7818608E-02  0.1125238E+00
         21   -1    0    0  501  502  0.00000000000E+00  0.00000000000E+00  0.70515235580E+03  0.70515235580E+03  0.00000000000E+00 0. -1.
         21   -1    0    0  502  503 -0.00000000000E+00 -0.00000000000E+00 -0.96764510615E+02  0.96764510615E+02  0.00000000000E+00 0. -1.
         -6    2    1    2    0  503 -0.13339569418E+03 -0.79721074502E+02  0.48903919832E+03  0.54133099584E+03  0.17242403724E+03 0.  0.
        -24    2    3    3    0    0 -0.12659650428E+03 -0.69759120982E+02  0.49861957791E+03  0.52522686053E+03  0.79679117043E+02 0.  0.
          6    2    1    2  501    0  0.13339569418E+03  0.79721074502E+02  0.11934864687E+03  0.26058587058E+03  0.17178776292E+03 0.  0.
         24    2    5    5    0    0  0.40578151423E+02 -0.22471380235E+02  0.43807472505E+02  0.10314714258E+03  0.81047449515E+02 0.  0.
          5    1    5    5  501    0  0.92817542755E+02  0.10219245474E+03  0.75541174361E+02  0.15743872799E+03  0.47000000000E+01 0. -1.
        -11    1    6    6    0    0  0.17335658072E+02 -0.71289635371E+01  0.65320072754E+02  0.67956302626E+02  0.00000000000E+00 0.  1.
         12    1    6    6    0    0  0.23242493351E+02 -0.15342416698E+02 -0.21512600250E+02  0.35190839956E+02  0.00000000000E+00 0. -1.
         -5    1    3    3    0  503 -0.67991899009E+01 -0.99619535203E+01 -0.95803795846E+01  0.16104135315E+02  0.47000000000E+01 0.  1.
         13    1    4    4    0    0 -0.43868507151E+02 -0.34037825426E+02  0.82381543229E+02  0.99346555775E+02  0.00000000000E+00 0. -1.
        -14    1    4    4    0    0 -0.82727997126E+02 -0.35721295556E+02  0.41623803468E+03  0.42588030475E+03  0.00000000000E+00 0.  1.
</event>
<event>
12    1  0.8297444E-002  0.1961617E+03  0.7818608E-02  0.1153316E+00
         21   -1    0    0  501  502  0.00000000000E+00  0.00000000000E+00  0.38969520941E+03  0.38969520941E+03  0.00000000000E+00 0. -1.
         21   -1    0    0  502  503 -0.00000000000E+00 -0.00000000000E+00 -0.98530580161E+02  0.98530580161E+02  0.00000000000E+00 0. -1.
         -6    2    1    2    0  503  0.89457495087E+02 -0.29671593346E+02  0.12807707389E+03  0.23312395061E+03  0.17046991703E+03 0.  0.
        -24    2    3    3    0    0  0.40858715500E+02 -0.80486308541E+02  0.60280919644E+02  0.13533650158E+03  0.80837484443E+02 0.  0.
          6    2    1    2  501    0 -0.89457495087E+02  0.29671593346E+02  0.16308755536E+03  0.25510183896E+03  0.17203589931E+03 0.  0.
         24    2    5    5    0    0 -0.11081329835E+03 -0.17214232256E+02  0.14585646592E+03  0.20057339300E+03  0.79872776624E+02 0.  0.
          5    1    5    5  501    0  0.21355803268E+02  0.46885825602E+02  0.17231089442E+02  0.54528445961E+02  0.47000000000E+01 0. -1.
        -11    1    6    6    0    0 -0.28736336758E+02  0.17190573195E+02  0.88684006119E+02  0.94795283629E+02  0.00000000000E+00 0.  1.
         12    1    6    6    0    0 -0.82076961597E+02 -0.34404805451E+02  0.57172459802E+02  0.10577810937E+03  0.00000000000E+00 0. -1.
         -5    1    3    3    0  503  0.48598779587E+02  0.50814715195E+02  0.67796154245E+02  0.97787449032E+02  0.47000000000E+01 0.  1.
         13    1    4    4    0    0  0.65135898968E+02 -0.52351451428E+02  0.46978003544E+02  0.95866013884E+02  0.00000000000E+00 0. -1.
        -14    1    4    4    0    0 -0.24277183468E+02 -0.28134857113E+02  0.13302916100E+02  0.39470487693E+02  0.00000000000E+00 0.  1.
</event>
<event>
12    1  0.8297444E-002  0.2101018E+03  0.7818608E-02  0.1141961E+00
         21   -1    0    0  501  502  0.00000000000E+00  0.00000000000E+00  0.15868563570E+02  0.15868563570E+02  0.00000000000E+00 0.  1.
         21   -1    0    0  502  503 -0.00000000000E+00 -0.00000000000E+00 -0.27990933122E+04  0.27990933122E+04  0.00000000000E+00 0.  1.
         -6    2    1    2    0  503 -0.43871494763E+02  0.10835401365E+03 -0.15697294593E+04  0.15834126172E+04  0.17169636184E+03 0.  0.
        -24    2    3    3    0    0  0.86773949052E+01  0.10948355551E+03 -0.76308282643E+03  0.77504169866E+03  0.79575678148E+02 0.  0.
          6    2    1    2  501    0  0.43871494763E+02 -0.10835401365E+03 -0.12134952894E+04  0.12315492586E+04  0.17457794439E+03 0.  0.
         24    2    5    5    0    0 -0.93230007969E+01 -0.38189269909E+02 -0.28299479354E+03  0.29688032877E+03  0.80663112751E+02 0.  0.
          5    1    5    5  501    0  0.53194495560E+02 -0.70164743741E+02 -0.93050049581E+03  0.93466892980E+03  0.47000000000E+01 0. -1.
        -13    1    6    6    0    0 -0.20889652274E+02  0.17297475170E+02 -0.47858868167E+02  0.55009558093E+02  0.00000000000E+00 0.  1.
         14    1    6    6    0    0  0.11566651477E+02 -0.55486745079E+02 -0.23513592537E+03  0.24187077067E+03  0.00000000000E+00 0. -1.
         -5    1    3    3    0  503 -0.52548889668E+02 -0.11295418620E+01 -0.80664663287E+03  0.80837091857E+03  0.47000000000E+01 0.  1.
         13    1    4    4    0    0  0.16053430086E+01 -0.12773208039E+02 -0.58974524968E+02  0.60363288222E+02  0.00000000000E+00 0. -1.
        -14    1    4    4    0    0  0.70720518966E+01  0.12225676355E+03 -0.70410830146E+03  0.71467841044E+03  0.00000000000E+00 0.  1.
</event>
<event>
12    1  0.8297444E-002  0.2477202E+03  0.7818608E-02  0.1115199E+00
         21   -1    0    0  503  502  0.00000000000E+00  0.00000000000E+00  0.11711329531E+04  0.11711329531E+04  0.00000000000E+00 0. -1.
         21   -1    0    0  501  503 -0.00000000000E+00 -0.00000000000E+00 -0.58008866330E+02  0.58008866330E+02  0.00000000000E+00 0.  1.
          6    2    1    2  501    0 -0.22349186639E+02 -0.17267807075E+03  0.75458575353E+03  0.79334940411E+03  0.17229746173E+03 0.  0.
         24    2    3    3    0    0  0.23817014009E+02 -0.42424937608E+02  0.43516744792E+03  0.44528713851E+03  0.80887591817E+02 0.  0.
         -6    2    1    2    0  502  0.22349186639E+02  0.17267807075E+03  0.35853833322E+03  0.43579241529E+03  0.17620468376E+03 0.  0.
        -24    2    5    5    0    0 -0.51947259237E+02  0.46996581508E+02  0.19996979585E+03  0.22019587160E+03  0.59925839189E+02 0.  0.
          5    1    3    3  501    0 -0.46166200648E+02 -0.13025313314E+03  0.31941830561E+03  0.34806226560E+03  0.47000000000E+01 0. -1.
        -13    1    4    4    0    0 -0.16450747794E+02 -0.72363688828E+01  0.20823576483E+02  0.27506607845E+02  0.00000000000E+00 0.  1.
         14    1    4    4    0    0  0.40267761803E+02 -0.35188568726E+02  0.41434387144E+03  0.41778053067E+03  0.00000000000E+00 0. -1.
         -5    1    5    5    0  502  0.74296445876E+02  0.12568148924E+03  0.15856853737E+03  0.21559654369E+03  0.47000000000E+01 0.  1.
         13    1    6    6    0    0 -0.38843674057E+02  0.44382814392E+02  0.19811253017E+03  0.20670568410E+03  0.00000000000E+00 0. -1.
        -14    1    6    6    0    0 -0.13103585180E+02  0.26137671161E+01  0.18572656796E+01  0.13490187504E+02  0.00000000000E+00 0.  1.
</event>
<event>
12    1  0.8297444E-002  0.2083840E+03  0.7818608E-02  0.1143200E+00
         21   -1    0    0  503  502  0.00000000000E+00  0.00000000000E+00  0.77719491202E+03  0.77719491202E+03  0.00000000000E+00 0. -1.
         21   -1    0    0  501  503 -0.00000000000E+00 -0.00000000000E+00 -0.79298381506E+02  0.79298381506E+02  0.00000000000E+00 0. -1.
          6    2    1    2  501    0 -0.10941816812E+03  0.42802021366E+02  0.11491624510E+03  0.23796985975E+03  0.17210334747E+03 0.  0.
         24    2    3    3    0    0 -0.27096098565E+02  0.79632136671E+02  0.44059234081E+02  0.12318228838E+03  0.78467727851E+02 0.  0.
         -6    2    1    2    0  502  0.10941816812E+03 -0.42802021366E+02  0.58298028541E+03  0.61852343378E+03  0.17000257766E+03 0.  0.
        -24    2    5    5    0    0  0.28572702626E+02  0.38576325790E+02  0.26903986304E+03  0.28424943917E+03  0.78171372732E+02 0.  0.
          5    1    3    3  501    0 -0.82322069555E+02 -0.36830115305E+02  0.70857011023E+02  0.11478757137E+03  0.47000000000E+01 0. -1.
        -13    1    4    4    0    0  0.68456804480E+01 -0.11563250111E+02 -0.48360701592E+01  0.14281444903E+02  0.00000000000E+00 0.  1.
         14    1    4    4    0    0 -0.33941779013E+02  0.91195386783E+02  0.48895304240E+02  0.10890084348E+03  0.00000000000E+00 0. -1.
         -5    1    5    5    0  502  0.80845465495E+02 -0.81378347156E+02  0.31394042236E+03  0.33427399461E+03  0.47000000000E+01 0.  1.
         11    1    6    6    0    0  0.41903762485E+02 -0.76202860690E+01  0.10503414965E+03  0.11334093110E+03  0.00000000000E+00 0. -1.
        -12    1    6    6    0    0 -0.13331059860E+02  0.46196611859E+02  0.16400571340E+03  0.17090850807E+03  0.00000000000E+00 0.  1.
</event>
<event>
12    1  0.8297444E-002  0.2297031E+03  0.7818608E-02  0.1126875E+00
         21   -1    0    0  501  502  0.00000000000E+00  0.00000000000E+00  0.29217051692E+03  0.29217051692E+03  0.00000000000E+00 0. -1.
         21   -1    0    0  502  503 -0.00000000000E+00 -0.00000000000E+00 -0.34315231050E+03  0.34315231050E+03  0.00000000000E+00 0.  1.
         -6    2    1    2    0  503 -0.13949561959E+03 -0.60152511482E+02 -0.24420486922E+03  0.33515840969E+03  0.17209819555E+03 0.  0.
        -24    2    3    3    0    0 -0.13799899833E+03 -0.59151884256E+02 -0.11458473692E+03  0.20544060125E+03  0.80830129009E+02 0.  0.
          6    2    1    2  501    0  0.13949561959E+03  0.60152511482E+02  0.19322307563E+03  0.30016441773E+03  0.17229674457E+03 0.  0.
         24    2    5    5    0    0  0.71632949194E+02  0.10261793599E+03  0.11340892096E+03  0.18702272074E+03  0.80338001737E+02 0.  0.
          5    1    5    5  501    0  0.67862670394E+02 -0.42465424504E+02  0.79814154677E+02  0.11314169699E+03  0.47000000000E+01 0. -1.
        -13    1    6    6    0    0 -0.56904673068E+01 -0.50439710508E+01 -0.51509198299E+01  0.91844998353E+01  0.00000000000E+00 0.  1.
         14    1    6    6    0    0  0.77323416501E+02  0.10766190704E+03  0.11855984078E+03  0.17783822090E+03  0.00000000000E+00 0. -1.
         -5    1    3    3    0  503 -0.14966212619E+01 -0.10006272265E+01 -0.12962013230E+03  0.12971780844E+03  0.47000000000E+01 0.  1.
         11    1    4    4    0    0 -0.12509799662E+02  0.18727884287E+02 -0.19475429884E+02  0.29774504306E+02  0.00000000000E+00 0. -1.
        -12    1    4    4    0    0 -0.12548919866E+03 -0.77879768543E+02 -0.95109307038E+02  0.17566609694E+03  0.00000000000E+00 0.  1.
</event>
<event>
12    1  0.8297444E-002  0.2104609E+03  0.7818608E-02  0.1141763E+00
         21   -1    0    0  503  502  0.00000000000E+00  0.00000000000E+00  0.73383973699E+02  0.73383973699E+02  0.00000000000E+00 0. -1.
         21   -1    0    0  501  503 -0.00000000000E+00 -0.00000000000E+00 -0.85845899292E+03  0.85845899292E+03  0.00000000000E+00 0. -1.
          6    2    1    2  501    0 -0.82296724834E+02 -0.88583120098E+02 -0.65223609185E+03  0.68535080143E+03  0.17226166557E+03 0.  0.
         24    2    3    3    0    0  0.12625151530E+02 -0.33011884458E+01 -0.31573049722E+03  0.32543237221E+03  0.77782965403E+02 0.  0.
         -6    2    1    2    0  502  0.82296724834E+02  0.88583120098E+02 -0.13283892738E+03  0.24649216519E+03  0.16879717649E+03 0.  0.
        -24    2    5    5    0    0 -0.16718002500E+02  0.65644247592E+02 -0.66064990580E+02  0.12479189101E+03  0.81361995013E+02 0.  0.
          5    1    3    3  501    0 -0.94921876365E+02 -0.85281931652E+02 -0.33650559462E+03  0.35991842922E+03  0.47000000000E+01 0. -1.
        -11    1    4    4    0    0 -0.14143282344E+02  0.31730878136E+02 -0.14439485745E+03  0.14851517067E+03  0.00000000000E+00 0.  1.
         12    1    4    4    0    0  0.26768433875E+02 -0.35032066582E+02 -0.17133563978E+03  0.17691720154E+03  0.00000000000E+00 0. -1.
         -5    1    5    5    0  502  0.99014727334E+02  0.22938872506E+02 -0.66773936796E+02  0.12170027418E+03  0.47000000000E+01 0.  1.
         13    1    6    6    0    0  0.24932805467E+02  0.33974304085E+02 -0.21571661490E+01  0.42196581523E+02  0.00000000000E+00 0. -1.
        -14    1    6    6    0    0 -0.41650807966E+02  0.31669943507E+02 -0.63907824431E+02  0.82595309488E+02  0.00000000000E+00 0.  1.
</event>
<event>
12    1  0.8297444E-002  0.2204098E+03  0.7818608E-02  0.1133710E+00
         21   -1    0    0  503  502  0.00000000000E+00  0.00000000000E+00  0.27223214106E+04  0.27223214106E+04  0.00000000000E+00 0. -1.
         21   -1    0    0  501  503 -0.00000000000E+00 -0.00000000000E+00 -0.24037072711E+02  0.24037072711E+02  0.00000000000E+00 0. -1.
          6    2    1    2  501    0 -0.10521319407E+03  0.89033255389E+02  0.65059196539E+03  0.68691366098E+03  0.17199923094E+03 0.  0.
         24    2    3    3    0    0 -0.95426101097E+02  0.48278711277E+02  0.24148903786E+03  0.27564244224E+03  0.78897565382E+02 0.  0.
         -6    2    1    2    0  502  0.10521319407E+03 -0.89033255389E+02  0.20476923725E+04  0.20594448223E+04  0.17109116591E+03 0.  0.
        -24    2    5    5    0    0  0.20626501395E+02 -0.88451199587E+02  0.15390960074E+04  0.15438407106E+04  0.79865841645E+02 0.  0.
          5    1    3    3  501    0 -0.97870929702E+01  0.40754544112E+02  0.40910292753E+03  0.41127121874E+03  0.47000000000E+01 0. -1.
        -13    1    4    4    0    0  0.20554181827E+01  0.92478885202E+01  0.94643009606E+02  0.95115968445E+02  0.00000000000E+00 0.  1.
         14    1    4    4    0    0 -0.97481519279E+02  0.39030822757E+02  0.14684602826E+03  0.18052647380E+03  0.00000000000E+00 0. -1.
         -5    1    5    5    0  502  0.84586692672E+02 -0.58205580226E+00  0.50859636515E+03  0.51560411171E+03  0.47000000000E+01 0.  1.
         13    1    6    6    0    0 -0.21448906605E+02 -0.10550759677E+01  0.42013779328E+03  0.42068626567E+03  0.00000000000E+00 0. -1.
        -14    1    6    6    0    0  0.42075407999E+02 -0.87396123619E+02  0.11189582141E+04  0.11231544450E+04  0.00000000000E+00 0.  1.
</event>
<event>
12    1  0.8297444E-002  0.1890111E+03  0.7818608E-02  0.1159381E+00
         21   -1    0    0  501  502  0.00000000000E+00  0.00000000000E+00  0.20167157133E+03  0.20167157133E+03  0.00000000000E+00 0.  1.
         21   -1    0    0  502  503 -0.00000000000E+00 -0.00000000000E+00 -0.34003633298E+03  0.34003633298E+03  0.00000000000E+00 0.  1.
         -6    2    1    2    0  503 -0.85312201686E+01 -0.78101470426E+02 -0.25671610147E+03  0.31879204626E+03  0.17190866938E+03 0.  0.
        -24    2    3    3    0    0  0.18435423089E+02 -0.99989621516E+02 -0.11726671211E+03  0.17500570060E+03  0.80856194805E+02 0.  0.
          6    2    1    2  501    0  0.85312201686E+01  0.78101470426E+02  0.11835133982E+03  0.22291585805E+03  0.17179004259E+03 0.  0.
         24    2    5    5    0    0 -0.27487358086E+01  0.75923573669E+02  0.15187205218E+03  0.18717080527E+03  0.78713693393E+02 0.  0.
          5    1    5    5  501    0  0.11279955977E+02  0.21778967571E+01 -0.33520712356E+02  0.35745052776E+02  0.47000000000E+01 0. -1.
        -13    1    6    6    0    0  0.15314706346E+02  0.59369448425E+02  0.41320926747E+02  0.73937072055E+02  0.00000000000E+00 0.  1.
         14    1    6    6    0    0 -0.18063442155E+02  0.16554125243E+02  0.11055112543E+03  0.11323373322E+03  0.00000000000E+00 0. -1.
         -5    1    3    3    0  503 -0.26966643257E+02  0.21888151090E+02 -0.13944938936E+03  0.14378634566E+03  0.47000000000E+01 0.  1.
         11    1    4    4    0    0 -0.13870447611E+02 -0.55577911354E+02 -0.15462147509E+02  0.59332719077E+02  0.00000000000E+00 0. -1.
        -12    1    4    4    0    0  0.32305870700E+02 -0.44411710161E+02 -0.10180456460E+03  0.11567298152E+03  0.00000000000E+00 0.  1.
</event>
<event>
12    1  0.8297444E-002  0.1837681E+03  0.7818608E-02  0.1164676E+00
         21   -1    0    0  503  502  0.00000000000E+00  0.00000000000E+00  0.36064513801E+03  0.36064513801E+03  0.00000000000E+00 0.  1.
         21   -1    0    0  501  503 -0.00000000000E+00 -0.00000000000E+00 -0.14270041777E+03  0.14270041777E+03  0.00000000000E+00 0.  1.
          6    2    1    2  501    0  0.45795064695E+02  0.42738385882E+02 -0.40488782277E+02  0.18623578852E+03  0.17064779476E+03 0.  0.
         24    2    3    3    0    0  0.63054164016E+02  0.33537657928E+01 -0.78765218311E+02  0.12847593772E+03  0.79467173176E+02 0.  0.
         -6    2    1    2    0  502 -0.45795064695E+02 -0.42738385882E+02  0.25843350251E+03  0.31710976726E+03  0.17276276131E+03 0.  0.
        -24    2    5    5    0    0  0.16308997579E+02  0.29619374081E+02  0.11577210806E+03  0.14545044347E+03  0.81297969089E+02 0.  0.
          5    1    3    3  501    0 -0.17259099321E+02  0.39384620089E+02  0.38276436034E+02  0.57759850800E+02  0.47000000000E+01 0. -1.
        -13    1    4    4    0    0  0.47728085392E+02 -0.21596200172E+02 -0.83738867386E+02  0.98775320339E+02  0.00000000000E+00 0.  1.
         14    1    4    4    0    0  0.15326078625E+02  0.24949965965E+02  0.49736490751E+01  0.29700617380E+02  0.00000000000E+00 0. -1.
         -5    1    5    5    0  502 -0.62104062274E+02 -0.72357759963E+02  0.14266139445E+03  0.17165932379E+03  0.47000000000E+01 0.  1.
         13    1    6    6    0    0  0.35624896360E+02 -0.13997843489E+02  0.36247888664E+02  0.52716053490E+02  0.00000000000E+00 0. -1.
        -14    1    6    6    0    0 -0.19315898781E+02  0.43617217570E+02  0.79524219397E+02  0.92734389980E+02  0.00000000000E+00 0.  1.
</event>
<event>
12    1  0.8297444E-002  0.2234326E+03  0.7818608E-02  0.1131368E+00
         21   -1    0    0  501  502  0.00000000000E+00  0.00000000000E+00  0.48301223945E+02  0.48301223945E+02  0.00000000000E+00 0. -1.
         21   -1    0    0  502  503 -0.00000000000E+00 -0.00000000000E+00 -0.11660090526E+04  0.11660090526E+04  0.00000000000E+00 0. -1.
         -6    2    1    2    0  503 -0.45434423320E+02 -0.13458265305E+03 -0.76395601299E+03  0.79595911494E+03  0.17246838999E+03 0.  0.
        -24    2    3    3    0    0  0.32323894277E+02 -0.10493613162E+03 -0.37465637335E+03  0.39783655641E+03  0.76485957278E+02 0.  0.
          6    2    1    2  501    0  0.45434423320E+02  0.13458265305E+03 -0.35375181563E+03  0.41835116157E+03  0.17233853314E+03 0.  0.
         24    2    5    5    0    0  0.81947388675E+02  0.43572680154E+02 -0.23212894896E+03  0.26204945492E+03  0.78562808715E+02 0.  0.
          5    1    5    5  501    0 -0.36512965355E+02  0.91009972892E+02 -0.12162286667E+03  0.15630170665E+03  0.47000000000E+01 0. -1.
        -13    1    6    6    0    0  0.10426341474E+02  0.58045697510E+01 -0.13555979035E+03  0.13608401224E+03  0.00000000000E+00 0.  1.
         14    1    6    6    0    0  0.71521047201E+02  0.37768110403E+02 -0.96569158603E+02  0.12596544268E+03  0.00000000000E+00 0. -1.
         -5    1    3    3    0  503 -0.77758317597E+02 -0.29646521429E+02 -0.38929963964E+03  0.39812255853E+03  0.47000000000E+01 0.  1.
         13    1    4    4    0    0 -0.19314605103E+01 -0.53305316772E+02 -0.76186276947E+02  0.93002882380E+02  0.00000000000E+00 0. -1.
        -14    1    4    4    0    0  0.34255354787E+02 -0.51630814845E+02 -0.29847009641E+03  0.30483367403E+03  0.00000000000E+00 0.  1.
</event>
<event>
12    1  0.8297444E-002  0.2337810E+03  0.7818608E-02  0.1124097E+00
         21   -1    0    0  501  502  0.00000000000E+00  0.00000000000E+00  0.44617936394E+02  0.44617936394E+02  0.00000000000E+00 0.  1.
         21   -1    0    0  502  503 -0.00000000000E+00 -0.00000000000E+00 -0.16333765422E+04  0.16333765422E+04  0.00000000000E+00 0.  1.
         -6    2    1    2    0  503  0.37561008640E+02  0.15439953913E+03 -0.12146786022E+04  0.12368716045E+04  0.17075483131E+03 0.  0.
        -24    2    3    3    0    0  0.91202226010E+01  0.22362976252E+02 -0.69986259306E+03  0.70461213256E+03  0.78021324096E+02 0.  0.
          6    2    1    2  501    0 -0.37561008640E+02 -0.15439953913E+03 -0.37408000363E+03  0.44112287408E+03  0.17147447001E+03 0.  0.
         24    2    5    5    0    0  0.20690373675E+02 -0.89740672825E+02 -0.12424590145E+03  0.17652287191E+03  0.85098768262E+02 0.  0.
          5    1    5    5  501    0 -0.58251382315E+02 -0.64658866307E+02 -0.24983410218E+03  0.26460000217E+03  0.47000000000E+01 0. -1.
        -13    1    6    6    0    0  0.34212463551E+02 -0.30497733001E+02 -0.10197949977E+03  0.11180528947E+03  0.00000000000E+00 0.  1.
         14    1    6    6    0    0 -0.13522089876E+02 -0.59242939824E+02 -0.22266401683E+02  0.64717582445E+02  0.00000000000E+00 0. -1.
         -5    1    3    3    0  503  0.28440786039E+02  0.13203656288E+03 -0.51481600912E+03  0.53225947196E+03  0.47000000000E+01 0.  1.
         11    1    4    4    0    0 -0.82136363120E+01 -0.68355923705E+01 -0.12642322865E+02  0.16553473108E+02  0.00000000000E+00 0. -1.
        -12    1    4    4    0    0  0.17333858913E+02  0.29198568622E+02 -0.68722027020E+03  0.68805865945E+03  0.00000000000E+00 0.  1.
</event>
<event>
12    1  0.8297444E-002  0.4008058E+03  0.7818608E-02  0.1043539E+00
         21   -1    0    0  501  502  0.00000000000E+00  0.00000000000E+00  0.47572389164E+03  0.47572389164E+03  0.00000000000E+00 0.  1.
         21   -1    0    0  502  503 -0.00000000000E+00 -0.00000000000E+00 -0.43113252845E+03  0.43113252845E+03  0.00000000000E+00 0.  1.
         -6    2    1    2    0  503 -0.23712852621E+03 -0.27274150021E+03 -0.18920616206E+03  0.44322033918E+03  0.17328425612E+03 0.  0.
        -24    2    3    3    0    0 -0.59970252496E+02 -0.16248455187E+03 -0.86263561956E+02  0.21049535659E+03  0.82880831587E+02 0.  0.
          6    2    1    2  501    0  0.23712852621E+03  0.27274150021E+03  0.23379752525E+03  0.46363608092E+03  0.17227672169E+03 0.  0.
         24    2    5    5    0    0  0.24101809104E+03  0.25946023121E+03  0.24957207101E+03  0.44213149734E+03  0.88231006616E+02 0.  0.
          5    1    5    5  501    0 -0.38895648328E+01  0.13281269002E+02 -0.15774545755E+02  0.21504583573E+02  0.47000000000E+01 0. -1.
        -13    1    6    6    0    0  0.22171537367E+03  0.25589119032E+03  0.21126458461E+03  0.39908737504E+03  0.00000000000E+00 0.  1.
         14    1    6    6    0    0  0.19302717375E+02  0.35690408854E+01  0.38307486398E+02  0.43044122305E+02  0.00000000000E+00 0. -1.
         -5    1    3    3    0  503 -0.17715827371E+03 -0.11025694834E+03 -0.10294260010E+03  0.23272498258E+03  0.47000000000E+01 0.  1.
         13    1    4    4    0    0 -0.38381801088E+02 -0.21130382674E+02 -0.62377290601E+00  0.43818316026E+02  0.00000000000E+00 0. -1.
        -14    1    4    4    0    0 -0.21588451408E+02 -0.14135416920E+03 -0.85639789050E+02  0.16667704057E+03  0.00000000000E+00 0.  1.
</event>
<event>
12    1  0.8297444E-002  0.2368820E+03  0.7818608E-02  0.1122117E+00
         21   -1    0    0  503  502  0.00000000000E+00  0.00000000000E+00  0.17631223131E+03  0.17631223131E+03  0.00000000000E+00 0.  1.
         21   -1    0    0  501  503 -0.00000000000E+00 -0.00000000000E+00 -0.32375578820E+03  0.32375578820E+03  0.00000000000E+00 0. -1.
          6    2    1    2  501    0  0.11286296877E+02  0.15879532159E+03 -0.11148476297E+03  0.26180512438E+03  0.17541304434E+03 0.  0.
         24    2    3    3    0    0 -0.51373467739E+02  0.96317904406E+02 -0.10961179869E+03  0.17317515341E+03  0.77836466059E+02 0.  0.
         -6    2    1    2    0  502 -0.11286296877E+02 -0.15879532159E+03 -0.35958793926E+02  0.23826289512E+03  0.17358812654E+03 0.  0.
        -24    2    5    5    0    0  0.23561711234E+02 -0.91854746739E+02  0.41531373879E+02  0.12999359967E+03  0.78619540857E+02 0.  0.
          5    1    3    3  501    0  0.62659764615E+02  0.62477417186E+02 -0.18729642714E+01  0.88629970975E+02  0.47000000000E+01 0. -1.
        -13    1    4    4    0    0 -0.55061863266E+02  0.57462813143E+02 -0.31003511734E+02  0.85410780470E+02  0.00000000000E+00 0.  1.
         14    1    4    4    0    0  0.36883955269E+01  0.38855091263E+02 -0.78608286960E+02  0.87764372940E+02  0.00000000000E+00 0. -1.
         -5    1    5    5    0  502 -0.34848008111E+02 -0.66940574853E+02 -0.77490167806E+02  0.10826929545E+03  0.47000000000E+01 0.  1.
         13    1    6    6    0    0  0.91508314297E+01  0.12241740827E+02  0.15415386522E+02  0.21707880503E+02  0.00000000000E+00 0. -1.
        -14    1    6    6    0    0  0.14410879805E+02 -0.10409648757E+03  0.26115987357E+02  0.10828571917E+03  0.00000000000E+00 0.  1.
</event>
<event>
12    1  0.8297444E-002  0.1864960E+03  0.7818608E-02  0.1162119E+00
         21   -1    0    0  501  502  0.00000000000E+00  0.00000000000E+00  0.88000272141E+02  0.88000272141E+02  0.00000000000E+00 0.  1.
         21   -1    0    0  502  503 -0.00000000000E+00 -0.00000000000E+00 -0.40980384064E+03  0.40980384064E+03  0.00000000000E+00 0.  1.
         -6    2    1    2    0  503  0.35407201945E+02 -0.55385696302E+02 -0.10685452761E+03  0.21322748373E+03  0.17241468743E+03 0.  0.
        -24    2    3    3    0    0 -0.55255563782E+01  0.30896039608E+02 -0.53711527941E+02  0.10383691252E+03  0.83138914661E+02 0.  0.
          6    2    1    2  501    0 -0.35407201945E+02  0.55385696302E+02 -0.21494904089E+03  0.28457662905E+03  0.17452656623E+03 0.  0.
         24    2    5    5    0    0  0.36527036311E+02  0.26597824220E+02 -0.55635423833E+02  0.10735869883E+03  0.79930727475E+02 0.  0.
          5    1    5    5  501    0 -0.71934238256E+02  0.28787872082E+02 -0.15931361706E+03  0.17721793022E+03  0.47000000000E+01 0. -1.
        -13    1    6    6    0    0 -0.14837634625E+02  0.17894622206E+02 -0.49772098168E+02  0.54933001568E+02  0.00000000000E+00 0.  1.
         14    1    6    6    0    0  0.51364670936E+02  0.87032020142E+01 -0.58633256645E+01  0.52425697263E+02  0.00000000000E+00 0. -1.
         -5    1    3    3    0  503  0.40932758323E+02 -0.86281735910E+02 -0.53142999668E+02  0.10939057121E+03  0.47000000000E+01 0.  1.
         11    1    4    4    0    0  0.32044231267E+02 -0.77125546319E+01 -0.31419019457E+02  0.45535382287E+02  0.00000000000E+00 0. -1.
        -12    1    4    4    0    0 -0.37569787645E+02  0.38608594240E+02 -0.22292508484E+02  0.58301530232E+02  0.00000000000E+00 0.  1.
</event>
<event>
12    1  0.8297444E-002  0.1741947E+03  0.7818608E-02  0.1174627E+00
         21   -1    0    0  503  502  0.00000000000E+00  0.00000000000E+00  0.31402628497E+03  0.31402628497E+03  0.00000000000E+00 0.  1.
         21   -1    0    0  501  503 -0.00000000000E+00 -0.00000000000E+00 -0.15014206808E+03  0.15014206808E+03  0.00000000000E+00 0.  1.
          6    2    1    2  501    0 -0.22845226925E+02  0.13733861331E+02 -0.60233174758E+02  0.18031558205E+03  0.16785455147E+03 0.  0.
         24    2    3    3    0    0 -0.93326192696E+01  0.50463702781E+01  0.33248264720E+02  0.85347521138E+02  0.77885740813E+02 0.  0.
         -6    2    1    2    0  502  0.22845226925E+02 -0.13733861331E+02  0.22411739164E+03  0.28385277100E+03  0.17214315853E+03 0.  0.
        -24    2    5    5    0    0  0.65160197986E+02  0.34363166720E+02  0.15656653537E+03  0.19063748756E+03  0.80018079448E+02 0.  0.
          5    1    3    3  501    0 -0.13512607656E+02  0.86874910527E+01 -0.93481439478E+02  0.94968060912E+02  0.47000000000E+01 0. -1.
        -13    1    4    4    0    0  0.34291372411E+02  0.64350934014E+01  0.16550424967E+02  0.38616385324E+02  0.00000000000E+00 0.  1.
         14    1    4    4    0    0 -0.43623991680E+02 -0.13887231234E+01  0.16697839753E+02  0.46731135814E+02  0.00000000000E+00 0. -1.
         -5    1    5    5    0  502 -0.42314971061E+02 -0.48097028051E+02  0.67550856276E+02  0.93215283440E+02  0.47000000000E+01 0.  1.
         13    1    6    6    0    0  0.29080821508E+02 -0.25169485642E+02  0.45723744639E+02  0.59748288769E+02  0.00000000000E+00 0. -1.
        -14    1    6    6    0    0  0.36079376478E+02  0.59532652361E+02  0.11084279073E+03  0.13088919879E+03  0.00000000000E+00 0.  1.
</event>
<event>
12    1  0.8297444E-002  0.2283763E+03  0.7818608E-02  0.1127979E+00
         21   -1    0    0  501  502  0.00000000000E+00  0.00000000000E+00  0.84339889177E+02  0.84339889177E+02  0.00000000000E+00 0.  1.
         21   -1    0    0  502  503 -0.00000000000E+00 -0.00000000000E+00 -0.85471828454E+03  0.85471828454E+03  0.00000000000E+00 0. -1.
         -6    2    1    2    0  503 -0.58017329441E+02 -0.13502413353E+03 -0.63424814550E+03  0.67411158659E+03  0.17480902136E+03 0.  0.
        -24    2    3    3    0    0 -0.10685214953E+03 -0.84781337237E+02 -0.45155467931E+03  0.47838685432E+03  0.79668669963E+02 0.  0.
          6    2    1    2  501    0  0.58017329441E+02  0.13502413353E+03 -0.13613024986E+03  0.26494658713E+03  0.17340046699E+03 0.  0.
         24    2    5    5    0    0  0.90552411043E+02  0.14895207824E+03 -0.11552785983E+03  0.22372683878E+03  0.79501894552E+02 0.  0.
          5    1    5    5  501    0 -0.32535081602E+02 -0.13927944712E+02 -0.20602390037E+02  0.41219748349E+02  0.47000000000E+01 0. -1.
        -13    1    6    6    0    0  0.48530046166E+02  0.18348615308E+02 -0.48539834584E+02  0.71048945143E+02  0.00000000000E+00 0.  1.
         14    1    6    6    0    0  0.42022364877E+02  0.13060346293E+03 -0.66988025242E+02  0.15267789364E+03  0.00000000000E+00 0. -1.
         -5    1    3    3    0  503  0.48834820094E+02 -0.50242796292E+02 -0.18269346619E+03  0.19572473227E+03  0.47000000000E+01 0.  1.
         11    1    4    4    0    0 -0.29829176028E+02 -0.64796440827E+02 -0.28512392261E+03  0.29391156788E+03  0.00000000000E+00 0. -1.
        -12    1    4    4    0    0 -0.77022973507E+02 -0.19984896411E+02 -0.16643075669E+03  0.18447528644E+03  0.00000000000E+00 0.  1.
</event>
<event>
12    1  0.8297444E-002  0.2596607E+03  0.7818608E-02  0.1107452E+00
         21   -1    0    0  503  502  0.00000000000E+00  0.00000000000E+00  0.11872931771E+03  0.11872931771E+03  0.00000000000E+00 0.  1.
         21   -1    0    0  501  503 -0.00000000000E+00 -0.00000000000E+00 -0.56956056508E+03  0.56956056508E+03  0.00000000000E+00 0. -1.
          6    2    1    2  501    0  0.65093523176E+02  0.18282123258E+03 -0.19931586978E+03  0.32678793396E+03  0.17147235343E+03 0.  0.
         24    2    3    3    0    0  0.36499001760E+02  0.20413728540E+03 -0.16642720561E+03  0.27804601162E+03  0.81285677617E+02 0.  0.
         -6    2    1    2    0  502 -0.65093523176E+02 -0.18282123258E+03 -0.25151537759E+03  0.36150194883E+03  0.17251928589E+03 0.  0.
        -24    2    5    5    0    0 -0.54558605372E+02 -0.10952389359E+03 -0.66890202412E+02  0.16252448854E+03  0.83473262236E+02 0.  0.
          5    1    3    3  501    0  0.28594521416E+02 -0.21316052819E+02 -0.32888664166E+02  0.48741922340E+02  0.47000000000E+01 0. -1.
        -11    1    4    4    0    0  0.77067984178E+00  0.75006846209E+02 -0.16178536033E+02  0.76735688919E+02  0.00000000000E+00 0.  1.
         12    1    4    4    0    0  0.35728321918E+02  0.12913043919E+03 -0.15024866958E+03  0.20131032270E+03  0.00000000000E+00 0. -1.
         -5    1    5    5    0  502 -0.10534917804E+02 -0.73297338996E+02 -0.18462517518E+03  0.19897746030E+03  0.47000000000E+01 0.  1.
         13    1    6    6    0    0 -0.18426537724E+02  0.22836965104E+01 -0.36820309518E+02  0.41236970733E+02  0.00000000000E+00 0. -1.
        -14    1    6    6    0    0 -0.36132067648E+02 -0.11180759010E+03 -0.30069892895E+02  0.12128751780E+03  0.00000000000E+00 0.  1.
</event>
<event>
12    1  0.8297444E-002  0.1955022E+03  0.7818608E-02  0.1156293E+00
         21   -1    0    0  503  502  0.00000000000E+00  0.00000000000E+00  0.43936152531E+02  0.43936152531E+02  0.00000000000E+00 0.  1.
         21   -1    0    0  501  503 -0.00000000000E+00 -0.00000000000E+00 -0.87538576993E+03  0.87538576993E+03  0.00000000000E+00 0.  1.
          6    2    1    2  501    0 -0.60173258205E+02  0.19772939607E+02 -0.30962862707E+03  0.36618438034E+03  0.18495762640E+03 0.  0.
         24    2    3    3    0    0 -0.11109035108E+03 -0.82015316159E+01 -0.22312280024E+03  0.26187489150E+03  0.79914601831E+02 0.  0.
         -6    2    1    2    0  502  0.60173258205E+02 -0.19772939607E+02 -0.52182099033E+03  0.55313754212E+03  0.17219815448E+03 0.  0.
        -24    2    5    5    0    0  0.59507990378E+02 -0.74601293387E+02 -0.30621396308E+03  0.33061772018E+03  0.80215533489E+02 0.  0.
          5    1    3    3  501    0  0.50917092878E+02  0.27974471223E+02 -0.86505826829E+02  0.10430948884E+03  0.47000000000E+01 0. -1.
        -11    1    4    4    0    0 -0.16629595372E+02 -0.22849731952E+02 -0.13155718145E+02  0.31172529772E+02  0.00000000000E+00 0.  1.
         12    1    4    4    0    0 -0.94460755711E+02  0.14648200336E+02 -0.20996708209E+03  0.23070236172E+03  0.00000000000E+00 0. -1.
         -5    1    5    5    0  502  0.66526782727E+00  0.54828353780E+02 -0.21560702725E+03  0.22251982194E+03  0.47000000000E+01 0.  1.
         13    1    6    6    0    0  0.43288642012E+02 -0.89086025498E+02 -0.21302580636E+03  0.23492598971E+03  0.00000000000E+00 0. -1.
        -14    1    6    6    0    0  0.16219348366E+02  0.14484732111E+02 -0.93188156728E+02  0.95691730469E+02  0.00000000000E+00 0.  1.
</event>
<event>
12    1  0.8297444E-002  0.2403998E+03  0.7818608E-02  0.1119765E+00
         21   -1    0    0  503  502  0.00000000000E+00  0.00000000000E+00  0.72390234551E+02  0.72390234551E+02  0.00000000000E+00 0.  1.
         21   -1    0    0  501  503 -0.00000000000E+00 -0.00000000000E+00 -0.10100855260E+04  0.10100855260E+04  0.00000000000E+00 0.  1.
          6    2    1    2  501    0  0.66373844536E+02  0.15277768629E+03 -0.71831334647E+03  0.75702142820E+03  0.17135013969E+03 0.  0.
         24    2    3    3    0    0  0.86939936293E+02  0.17286091982E+03 -0.63017172115E+03  0.66419181809E+03  0.81209130990E+02 0.  0.
         -6    2    1    2    0  502 -0.66373844536E+02 -0.15277768629E+03 -0.21938194495E+03  0.32545433232E+03  0.17333659738E+03 0.  0.
        -24    2    5    5    0    0 -0.23545880276E+02 -0.12083992381E+03 -0.22815438350E+03  0.27111005136E+03  0.79306630090E+02 0.  0.
          5    1    3    3  501    0 -0.20566091757E+02 -0.20083233531E+02 -0.88141625321E+02  0.92829610112E+02  0.47000000000E+01 0. -1.
        -11    1    4    4    0    0  0.36190331971E+02  0.16138239502E+02 -0.19269192200E+03  0.19672406998E+03  0.00000000000E+00 0.  1.
         12    1    4    4    0    0  0.50749604321E+02  0.15672268032E+03 -0.43747979915E+03  0.46746774811E+03  0.00000000000E+00 0. -1.
         -5    1    5    5    0  502 -0.42827964260E+02 -0.31937762483E+02  0.87724385468E+01  0.54344280960E+02  0.47000000000E+01 0.  1.
         11    1    6    6    0    0  0.52189057613E+01  0.87672898668E+01 -0.47944807140E+01  0.11273393201E+02  0.00000000000E+00 0. -1.
        -12    1    6    6    0    0 -0.28764786037E+02 -0.12960721368E+03 -0.22335990278E+03  0.25983665816E+03  0.00000000000E+00 0.  1.
</event>
<event>
12    1  0.8297444E-002  0.2157237E+03  0.7818608E-02  0.1138963E+00
         21   -1    0    0  503  502  0.00000000000E+00  0.00000000000E+00  0.10917027831E+04  0.10917027831E+04  0.00000000000E+00 0. -1.
         21   -1    0    0  501  503 -0.00000000000E+00 -0.00000000000E+00 -0.47020361008E+02  0.47020361008E+02  0.00000000000E+00 0. -1.
          6    2    1    2  501    0  0.12383091372E+03  0.34622076340E+02  0.30481993352E+03  0.36805252777E+03  0.16129069397E+03 0.  0.
         24    2    3    3    0    0  0.73830184291E+02  0.83408610481E+02  0.19709730013E+03  0.23957507993E+03  0.78364410234E+02 0.  0.
         -6    2    1    2    0  502 -0.12383091372E+03 -0.34622076340E+02  0.73986248855E+03  0.77067061632E+03  0.17321637779E+03 0.  0.
        -24    2    5    5    0    0 -0.12997289371E+02 -0.31313676521E+02  0.48480424213E+03  0.49251268122E+03  0.79900638928E+02 0.  0.
          5    1    3    3  501    0  0.50000729431E+02 -0.48786534141E+02  0.10772263339E+03  0.12847744783E+03  0.47000000000E+01 0. -1.
        -11    1    4    4    0    0  0.28048446012E+02  0.70315810074E+02  0.16669538010E+03  0.18308025075E+03  0.00000000000E+00 0.  1.
         12    1    4    4    0    0  0.45781738279E+02  0.13092800407E+02  0.30401920033E+02  0.56494829180E+02  0.00000000000E+00 0. -1.
         -5    1    5    5    0  502 -0.11083362435E+03 -0.33083998181E+01  0.25505824642E+03  0.27815793511E+03  0.47000000000E+01 0.  1.
         13    1    6    6    0    0 -0.27125663786E+02 -0.51438180028E+02  0.40036286826E+03  0.40456410405E+03  0.00000000000E+00 0. -1.
        -14    1    6    6    0    0  0.14128374415E+02  0.20124503507E+02  0.84441373872E+02  0.87948577171E+02  0.00000000000E+00 0.  1.
</event>
<event>
12    1  0.8297444E-002  0.2064567E+03  0.7818608E-02  0.1144632E+00
         21   -1    0    0  503  502  0.00000000000E+00  0.00000000000E+00  0.55716918365E+02  0.55716918365E+02  0.00000000000E+00 0.  1.
         21   -1    0    0  501  503 -0.00000000000E+00 -0.00000000000E+00 -0.86355612402E+03  0.86355612402E+03  0.00000000000E+00 0.  1.
          6    2    1    2  501    0  0.54715806732E+01  0.11482122202E+03 -0.24442569097E+03  0.31922375999E+03  0.17013535585E+03 0.  0.
         24    2    3    3    0    0  0.28337601992E+02  0.14315492340E+03 -0.21665366043E+03  0.27319084519E+03  0.79987983717E+02 0.  0.
         -6    2    1    2    0  502 -0.54715806732E+01 -0.11482122202E+03 -0.56341351468E+03  0.60004928239E+03  0.17149490242E+03 0.  0.
        -24    2    5    5    0    0 -0.42241554569E+02 -0.12015773617E+03 -0.31840913066E+03  0.35219903012E+03  0.80234355713E+02 0.  0.
          5    1    3    3  501    0 -0.22866021319E+02 -0.28333701372E+02 -0.27772030547E+02  0.46032914802E+02  0.47000000000E+01 0. -1.
        -11    1    4    4    0    0  0.23459054116E+02  0.13247916971E+02 -0.80738661076E+02  0.85115015811E+02  0.00000000000E+00 0.  1.
         12    1    4    4    0    0  0.48785478764E+01  0.12990700642E+03 -0.13591499935E+03  0.18807582938E+03  0.00000000000E+00 0. -1.
         -5    1    5    5    0  502  0.36769973896E+02  0.53365141451E+01 -0.24500438402E+03  0.24785025227E+03  0.47000000000E+01 0.  1.
         13    1    6    6    0    0  0.11273120269E+02  0.64463224536E+01 -0.31189391718E+02  0.33784855624E+02  0.00000000000E+00 0. -1.
        -14    1    6    6    0    0 -0.53514674839E+02 -0.12660405862E+03 -0.28721973894E+03  0.31841417450E+03  0.00000000000E+00 0.  1.
</event>
<event>
12    1  0.8297444E-002  0.3497282E+03  0.7818608E-02  0.1062741E+00
         21   -1    0    0  501  502  0.00000000000E+00  0.00000000000E+00  0.15742751788E+03  0.15742751788E+03  0.00000000000E+00 0. -1.
         21   -1    0    0  502  503 -0.00000000000E+00 -0.00000000000E+00 -0.98415121790E+03  0.98415121790E+03  0.00000000000E+00 0.  1.
         -6    2    1    2    0  503  0.16477238206E+03 -0.25605466005E+03 -0.67554695616E+03  0.76070591296E+03  0.17203450006E+03 0.  0.
        -24    2    3    3    0    0  0.51511415839E+02 -0.61552679847E+02 -0.14125064522E+03  0.18091827541E+03  0.79608537506E+02 0.  0.
          6    2    1    2  501    0 -0.16477238206E+03  0.25605466005E+03 -0.15117674386E+03  0.38087282282E+03  0.17174333307E+03 0.  0.
         24    2    5    5    0    0 -0.13282368383E+02  0.91014628527E+02 -0.80317193287E+02  0.14586090364E+03  0.79777614385E+02 0.  0.
          5    1    5    5  501    0 -0.15149001368E+03  0.16504003152E+03 -0.70859550577E+02  0.23501191918E+03  0.47000000000E+01 0. -1.
        -13    1    6    6    0    0  0.17703814936E+02 -0.12307267043E+01 -0.33419008727E+02  0.37838735388E+02  0.00000000000E+00 0.  1.
         14    1    6    6    0    0 -0.30986183318E+02  0.92245355232E+02 -0.46898184560E+02  0.10802216825E+03  0.00000000000E+00 0. -1.
         -5    1    3    3    0  503  0.11326096623E+03 -0.19450198020E+03 -0.53429631093E+03  0.57978763754E+03  0.47000000000E+01 0.  1.
         13    1    4    4    0    0  0.35479854221E+01  0.17776026863E+02 -0.38354768894E+02  0.42422442510E+02  0.00000000000E+00 0. -1.
        -14    1    4    4    0    0  0.47963430417E+02 -0.79328706710E+02 -0.10289587633E+03  0.13849583290E+03  0.00000000000E+00 0.  1.
</event>
<event>
12    1  0.8297444E-002  0.1787990E+03  0.7818608E-02  0.1170008E+00
         21   -1    0    0  501  502  0.00000000000E+00  0.00000000000E+00  0.20100535864E+03  0.20100535864E+03  0.00000000000E+00 0.  1.
         21   -1    0    0  502  503 -0.00000000000E+00 -0.00000000000E+00 -0.29110256517E+03  0.29110256517E+03  0.00000000000E+00 0.  1.
         -6    2    1    2    0  503  0.15684144238E+02  0.16965127292E+02 -0.21336518903E+03  0.27837708838E+03  0.17730000429E+03 0.  0.
        -24    2    3    3    0    0  0.64370262586E+02  0.14142545395E+01 -0.66495625693E+02  0.12279776328E+03  0.80697531617E+02 0.  0.
          6    2    1    2  501    0 -0.15684144238E+02 -0.16965127292E+02  0.12326798250E+03  0.21373083543E+03  0.17306665357E+03 0.  0.
         24    2    5    5    0    0 -0.54441791844E+01 -0.60282077720E+02  0.24228805714E+02  0.10504751740E+03  0.82367335182E+02 0.  0.
          5    1    5    5  501    0 -0.10239965054E+02  0.43316950428E+02  0.99039176787E+02  0.10868331803E+03  0.47000000000E+01 0. -1.
        -11    1    6    6    0    0 -0.37824953683E+02 -0.54058626097E+02  0.28363105498E+02  0.71815930893E+02  0.00000000000E+00 0.  1.
         12    1    6    6    0    0  0.32380774498E+02 -0.62234516231E+01 -0.41342997844E+01  0.33231586509E+02  0.00000000000E+00 0. -1.
         -5    1    3    3    0  503 -0.48686118348E+02  0.15550872752E+02 -0.14686956334E+03  0.15557932510E+03  0.47000000000E+01 0.  1.
         11    1    4    4    0    0  0.16591465885E+02 -0.34472901998E+02 -0.78157584751E+01  0.39047967847E+02  0.00000000000E+00 0. -1.
        -12    1    4    4    0    0  0.47778796700E+02  0.35887156538E+02 -0.58679867218E+02  0.83749795434E+02  0.00000000000E+00 0.  1.
</event>
<event>
12    1  0.8297444E-002  0.1798320E+03  0.7818608E-02  0.1169979E+00
         21   -1    0    0  503  502  0.00000000000E+00  0.00000000000E+00  0.23793553463E+03  0.23793553463E+03  0.00000000000E+00 0. -1.
         21   -1    0    0  501  503 -0.00000000000E+00 -0.00000000000E+00 -0.23253930378E+03  0.23253930378E+03  0.00000000000E+00 0. -1.
          6    2    1    2  501    0 -0.30022964704E+01 -0.32169503104E+02  0.15895529990E+03  0.23400086966E+03  0.16865861650E+03 0.  0.
         24    2    3    3    0    0 -0.38608565311E+02 -0.72319805499E+02  0.12792596129E+03  0.17183365147E+03  0.80255695259E+02 0.  0.
         -6    2    1    2    0  502  0.30022964704E+01  0.32169503104E+02 -0.15355906905E+03  0.23647396875E+03  0.17690579271E+03 0.  0.
        -24    2    5    5    0    0 -0.65248047577E+02  0.48650609156E+01 -0.67693912527E+02  0.12334326058E+03  0.79687625181E+02 0.  0.
          5    1    3    3  501    0  0.35606268841E+02  0.40150302396E+02  0.31029338612E+02  0.62167218194E+02  0.47000000000E+01 0. -1.
        -13    1    4    4    0    0 -0.21279558810E+02 -0.38840116004E+02  0.65885556805E+01  0.44774806536E+02  0.00000000000E+00 0.  1.
         14    1    4    4    0    0 -0.17329006501E+02 -0.33479689495E+02  0.12133740561E+03  0.12705884493E+03  0.00000000000E+00 0. -1.
         -5    1    5    5    0  502  0.68250344048E+02  0.27304442188E+02 -0.85865156524E+02  0.11313070817E+03  0.47000000000E+01 0.  1.
         11    1    6    6    0    0 -0.26159354706E+02  0.41810931999E+02 -0.32685527119E+02  0.59167639434E+02  0.00000000000E+00 0. -1.
        -12    1    6    6    0    0 -0.39088692872E+02 -0.36945871083E+02 -0.35008385408E+02  0.64175621145E+02  0.00000000000E+00 0.  1.
</event>
<event>
12    1  0.8297444E-002  0.2178912E+03  0.7818608E-02  0.1135579E+00
         21   -1    0    0  501  502  0.00000000000E+00  0.00000000000E+00  0.45479877922E+03  0.45479877922E+03  0.00000000000E+00 0. -1.
         21   -1    0    0  502  503 -0.00000000000E+00 -0.00000000000E+00 -0.13915193226E+03  0.13915193226E+03  0.00000000000E+00 0.  1.
         -6    2    1    2    0  503  0.98427577210E+02 -0.90263377595E+02  0.89410248008E+01  0.21807457622E+03  0.17216594779E+03 0.  0.
        -24    2    3    3    0    0  0.52991762326E+01 -0.81875238858E+02 -0.23172110672E+02  0.11909678371E+03  0.83159251867E+02 0.  0.
          6    2    1    2  501    0 -0.98427577210E+02  0.90263377595E+02  0.30670582216E+03  0.37587613526E+03  0.17140286584E+03 0.  0.
         24    2    5    5    0    0 -0.87426840732E+02  0.84490160877E+02  0.11961645186E+03  0.18831582838E+03  0.79829292238E+02 0.  0.
          5    1    5    5  501    0 -0.11000736478E+02  0.57732167175E+01  0.18708937030E+03  0.18756030687E+03  0.47000000000E+01 0. -1.
        -11    1    6    6    0    0 -0.47908126480E+02 -0.17908013725E+01  0.57633313096E+02  0.74966621445E+02  0.00000000000E+00 0.  1.
         12    1    6    6    0    0 -0.39518714252E+02  0.86280962250E+02  0.61983138763E+02  0.11334920694E+03  0.00000000000E+00 0. -1.
         -5    1    3    3    0  503  0.93128400978E+02 -0.83881387368E+01  0.32113135473E+02  0.98977792510E+02  0.47000000000E+01 0.  1.
         11    1    4    4    0    0 -0.12967118892E+02 -0.57479308998E+02  0.23432285273E+02  0.63412058225E+02  0.00000000000E+00 0. -1.
        -12    1    4    4    0    0  0.18266295124E+02 -0.24395929860E+02 -0.46604395945E+02  0.55684725489E+02  0.00000000000E+00 0.  1.
</event>
<event>
12    1  0.8297444E-002  0.1827014E+03  0.7818608E-02  0.1165455E+00
         21   -1    0    0  503  502  0.00000000000E+00  0.00000000000E+00  0.93107502961E+03  0.93107502961E+03  0.00000000000E+00 0.  1.
         21   -1    0    0  501  503 -0.00000000000E+00 -0.00000000000E+00 -0.41853574542E+02  0.41853574542E+02  0.00000000000E+00 0.  1.
          6    2    1    2  501    0 -0.61651454158E+02 -0.63904189227E+01  0.25841382377E+03  0.31647670778E+03  0.17186641032E+03 0.  0.
         24    2    3    3    0    0 -0.22393989530E+02 -0.15125764955E+02  0.37050580782E+02  0.91440643675E+02  0.79109836600E+02 0.  0.
         -6    2    1    2    0  502  0.61651454158E+02  0.63904189227E+01  0.63080763130E+03  0.65645189638E+03  0.17078959365E+03 0.  0.
        -24    2    5    5    0    0 -0.15251679256E+02 -0.35788664041E+02  0.35808247688E+03  0.36993092538E+03  0.84334969681E+02 0.  0.
          5    1    3    3  501    0 -0.39257464627E+02  0.87353460327E+01  0.22136324299E+03  0.22503606410E+03  0.47000000000E+01 0. -1.
        -13    1    4    4    0    0 -0.26602345682E+02 -0.93793228039E+01  0.60597012894E+02  0.66840515137E+02  0.00000000000E+00 0.  1.
         14    1    4    4    0    0  0.42083561519E+01 -0.57464421515E+01 -0.23546432112E+02  0.24600128538E+02  0.00000000000E+00 0. -1.
         -5    1    5    5    0  502  0.76903133413E+02  0.42179082963E+02  0.27272515442E+03  0.28652097100E+03  0.47000000000E+01 0.  1.
         13    1    6    6    0    0 -0.49853880383E+02 -0.25545154143E+02  0.24037713053E+03  0.24681800820E+03  0.00000000000E+00 0. -1.
        -14    1    6    6    0    0  0.34602201127E+02 -0.10243509898E+02  0.11770534635E+03  0.12311291718E+03  0.00000000000E+00 0.  1.
</event>
<event>
12    1  0.8297444E-002  0.2177795E+03  0.7818608E-02  0.1135601E+00
         21   -1    0    0  503  502  0.00000000000E+00  0.00000000000E+00  0.81172195327E+02  0.81172195327E+02  0.00000000000E+00 0. -1.
         21   -1    0    0  501  503 -0.00000000000E+00 -0.00000000000E+00 -0.86213422614E+03  0.86213422614E+03  0.00000000000E+00 0.  1.
          6    2    1    2  501    0  0.12293423675E+03  0.53496240924E+02 -0.65842378691E+03  0.69341934693E+03  0.17127122694E+03 0.  0.
         24    2    3    3    0    0  0.14391127490E+03  0.47685659769E+01 -0.51189700540E+03  0.53751357368E+03  0.78416219523E+02 0.  0.
         -6    2    1    2    0  502 -0.12293423675E+03 -0.53496240924E+02 -0.12253824390E+03  0.24988707453E+03  0.17161950484E+03 0.  0.
        -24    2    5    5    0    0 -0.99899879693E+01  0.16065183098E+02 -0.32158038165E+02  0.89307291765E+02  0.81140390535E+02 0.  0.
          5    1    3    3  501    0 -0.20977038155E+02  0.48727674948E+02 -0.14652678151E+03  0.15590577326E+03  0.47000000000E+01 0. -1.
        -13    1    4    4    0    0  0.13368949947E+03  0.29694746623E+02 -0.42178399816E+03  0.44345958254E+03  0.00000000000E+00 0.  1.
         14    1    4    4    0    0  0.10221775437E+02 -0.24926180646E+02 -0.90113007238E+02  0.94053991134E+02  0.00000000000E+00 0. -1.
         -5    1    5    5    0  502 -0.11294424878E+03 -0.69561424022E+02 -0.90380205736E+02  0.16057978277E+03  0.47000000000E+01 0.  1.
         11    1    6    6    0    0  0.11807051979E+02 -0.75009762898E+01  0.22164139990E+02  0.26209162963E+02  0.00000000000E+00 0. -1.
        -12    1    6    6    0    0 -0.21797039948E+02  0.23566159388E+02 -0.54322178155E+02  0.63098128802E+02  0.00000000000E+00 0.  1.
</event>
<event>
12    1  0.8297444E-002  0.2156588E+03  0.7818608E-02  0.1137371E+00
         21   -1    0    0  501  502  0.00000000000E+00  0.00000000000E+00  0.65441331372E+03  0.65441331372E+03  0.00000000000E+00 0.  1.
         21   -1    0    0  502  503 -0.00000000000E+00 -0.00000000000E+00 -0.70742222490E+02  0.70742222490E+02  0.00000000000E+00 0.  1.
         -6    2    1    2    0  503  0.11193746666E+03 -0.63002696043E+02  0.28491163499E+03  0.35732808530E+03  0.17323216975E+03 0.  0.
        -24    2    3    3    0    0  0.57144594567E+01  0.36564123265E+01  0.61397935381E+02  0.10099387396E+03  0.79900135856E+02 0.  0.
          6    2    1    2  501    0 -0.11193746666E+03  0.63002696043E+02  0.29875945624E+03  0.36782745092E+03  0.17187345578E+03 0.  0.
         24    2    5    5    0    0 -0.10543151558E+03  0.99618261076E+02  0.18172478799E+03  0.24493631790E+03  0.77008433550E+02 0.  0.
          5    1    5    5  501    0 -0.65059510831E+01 -0.36615565033E+02  0.11703466825E+03  0.12289113302E+03  0.47000000000E+01 0. -1.
        -11    1    6    6    0    0 -0.72647425332E+02  0.17488694530E+02  0.69411002064E+02  0.10198720533E+03  0.00000000000E+00 0.  1.
         12    1    6    6    0    0 -0.32784090249E+02  0.82129566547E+02  0.11231378593E+03  0.14294911257E+03  0.00000000000E+00 0. -1.
         -5    1    3    3    0  503  0.10622300721E+03 -0.66659108370E+02  0.22351369961E+03  0.25633421134E+03  0.47000000000E+01 0.  1.
         11    1    4    4    0    0 -0.23129231665E+02 -0.14320105909E+01  0.67245786508E+02  0.71126702545E+02  0.00000000000E+00 0. -1.
        -12    1    4    4    0    0  0.28843691122E+02  0.50884229174E+01 -0.58478511278E+01  0.29867171412E+02  0.00000000000E+00 0.  1.
</event>
<event>
12    1  0.8297444E-002  0.1770825E+03  0.7818608E-02  0.1171669E+00
         21   -1    0    0  503  502  0.00000000000E+00  0.00000000000E+00  0.84032227784E+02  0.84032227784E+02  0.00000000000E+00 0. -1.
         21   -1    0    0  501  503 -0.00000000000E+00 -0.00000000000E+00 -0.49495114117E+03  0.49495114117E+03  0.00000000000E+00 0. -1.
          6    2    1    2  501    0 -0.98162366695E+01  0.35831073690E+02 -0.35221358562E+03  0.39242362201E+03  0.16900196705E+03 0.  0.
         24    2    3    3    0    0  0.20800003856E+02  0.40177871580E+02 -0.90857446088E+02  0.12920247827E+03  0.79945627504E+02 0.  0.
         -6    2    1    2    0  502  0.98162366695E+01 -0.35831073690E+02 -0.58705327762E+02  0.18655974695E+03  0.17314155864E+03 0.  0.
        -24    2    5    5    0    0 -0.43470773556E+02 -0.67000707770E+02 -0.23072303648E+02  0.11512548377E+03  0.79641338659E+02 0.  0.
          5    1    3    3  501    0 -0.30616240525E+02 -0.43467978901E+01 -0.26135613954E+03  0.26322114374E+03  0.47000000000E+01 0. -1.
        -11    1    4    4    0    0  0.11025916331E+02  0.62698097706E+02 -0.47689124265E+02  0.79541654873E+02  0.00000000000E+00 0.  1.
         12    1    4    4    0    0  0.97740875244E+01 -0.22520226125E+02 -0.43168321823E+02  0.49660823399E+02  0.00000000000E+00 0. -1.
         -5    1    5    5    0  502  0.53287010226E+02  0.31169634080E+02 -0.35633024114E+02  0.71434263173E+02  0.47000000000E+01 0.  1.
         13    1    6    6    0    0 -0.79433840132E+01 -0.75061206318E+02 -0.22228630707E+02  0.78685412032E+02  0.00000000000E+00 0. -1.
        -14    1    6    6    0    0 -0.35527389543E+02  0.80604985477E+01 -0.84367294051E+00  0.36440071743E+02  0.00000000000E+00 0.  1.
</event>
<event>
12    1  0.8297444E-002  0.2601717E+03  0.7818608E-02  0.1107130E+00
         21   -1    0    0  503  502  0.00000000000E+00  0.00000000000E+00  0.66689472767E+02  0.66689472767E+02  0.00000000000E+00 0. -1.
         21   -1    0    0  501  503 -0.00000000000E+00 -0.00000000000E+00 -0.10178099102E+04  0.10178099102E+04  0.00000000000E+00 0.  1.
          6    2    1    2  501    0 -0.16999413823E+03 -0.96568088817E+02 -0.43754617766E+03  0.50905399296E+03  0.17165636415E+03 0.  0.
         24    2    3    3    0    0 -0.11209382061E+03 -0.12960228736E+03 -0.27828222141E+03  0.33633803303E+03  0.79501573588E+02 0.  0.
         -6    2    1    2    0  502  0.16999413823E+03  0.96568088817E+02 -0.51357425973E+03  0.57544538996E+03  0.17074974016E+03 0.  0.
        -24    2    5    5    0    0  0.19636423048E+03  0.73915246853E+02 -0.45218502369E+03  0.50473993532E+03  0.79175324019E+02 0.  0.
          5    1    3    3  501    0 -0.57900317620E+02  0.33034198540E+02 -0.15926395626E+03  0.17271595993E+03  0.47000000000E+01 0. -1.
        -11    1    4    4    0    0 -0.44589902189E+01  0.40002298991E+01 -0.52126509665E+02  0.52469585884E+02  0.00000000000E+00 0.  1.
         12    1    4    4    0    0 -0.10763483039E+03 -0.13360251726E+03 -0.22615571174E+03  0.28386844714E+03  0.00000000000E+00 0. -1.
         -5    1    5    5    0  502 -0.26370092251E+02  0.22652841965E+02 -0.61389236040E+02  0.70705454641E+02  0.47000000000E+01 0.  1.
         13    1    6    6    0    0  0.45386198655E+02 -0.13141903182E+02 -0.67246822805E+02  0.82187297224E+02  0.00000000000E+00 0. -1.
        -14    1    6    6    0    0  0.15097803182E+03  0.87057150035E+02 -0.38493820088E+03  0.42255263810E+03  0.00000000000E+00 0.  1.
</event>
<event>
12    1  0.8297444E-002  0.2853987E+03  0.7818608E-02  0.1092778E+00
         21   -1    0    0  501  502  0.00000000000E+00  0.00000000000E+00  0.48402081759E+03  0.48402081759E+03  0.00000000000E+00 0.  1.
         21   -1    0    0  502  503 -0.00000000000E+00 -0.00000000000E+00 -0.93355295557E+03  0.93355295557E+03  0.00000000000E+00 0. -1.
         -6    2    1    2    0  503 -0.19209525199E+03  0.12294105922E+03 -0.86650045418E+03  0.91228674282E+03  0.17154875156E+03 0.  0.
        -24    2    3    3    0    0 -0.66340607973E+02 -0.31421528908E+01 -0.39377177977E+03  0.40710786711E+03  0.79181131092E+02 0.  0.
          6    2    1    2  501    0  0.19209525199E+03 -0.12294105922E+03  0.41696831620E+03  0.50528703034E+03  0.17157306442E+03 0.  0.
         24    2    5    5    0    0  0.40938695310E+02 -0.15622198868E+02  0.20012387688E+03  0.21996397961E+03  0.80090925558E+02 0.  0.
          5    1    5    5  501    0  0.15115655668E+03 -0.10731886035E+03  0.21684443932E+03  0.28532305073E+03  0.47000000000E+01 0. -1.
        -13    1    6    6    0    0 -0.11459965804E+02 -0.33884159524E+02  0.75503744920E+02  0.83548085435E+02  0.00000000000E+00 0.  1.
         14    1    6    6    0    0  0.52398661115E+02  0.18261960656E+02  0.12462013196E+03  0.13641589417E+03  0.00000000000E+00 0. -1.
         -5    1    3    3    0  503 -0.12575464401E+03  0.12608321211E+03 -0.47272867440E+03  0.50517887572E+03  0.47000000000E+01 0.  1.
         13    1    4    4    0    0 -0.64109607332E+02  0.16884663272E+02 -0.17060723063E+03  0.18303540846E+03  0.00000000000E+00 0. -1.
        -14    1    4    4    0    0 -0.22310006412E+01 -0.20026816163E+02 -0.22316454914E+03  0.22407245865E+03  0.00000000000E+00 0.  1.
</event>
<event>
12    1  0.8297444E-002  0.1877000E+03  0.7818608E-02  0.1163641E+00
         21   -1    0    0  501  502  0.00000000000E+00  0.00000000000E+00  0.78612925216E+03  0.78612925216E+03  0.00000000000E+00 0.  1.
         21   -1    0    0  502  503 -0.00000000000E+00 -0.00000000000E+00 -0.70610629917E+02  0.70610629917E+02  0.00000000000E+00 0.  1.
         -6    2    1    2    0  503  0.29100833391E+02 -0.86286891316E+01  0.91676878242E+02  0.20889215075E+03  0.18522950051E+03 0.  0.
        -24    2    3    3    0    0  0.89991119819E+02 -0.53774877330E+01  0.46468442895E+02  0.13283894622E+03  0.85787822145E+02 0.  0.
          6    2    1    2  501    0 -0.29100833391E+02  0.86286891316E+01  0.62384174400E+03  0.64784773133E+03  0.17206640767E+03 0.  0.
         24    2    5    5    0    0  0.26040751578E+02  0.43313682683E+02  0.49244129249E+03  0.50111051101E+03  0.77840361262E+02 0.  0.
          5    1    5    5  501    0 -0.55141584969E+02 -0.34684993552E+02  0.13140045151E+03  0.14673722032E+03  0.47000000000E+01 0. -1.
        -11    1    6    6    0    0  0.54260742048E+01 -0.22743356393E+02  0.10972324951E+03  0.11218687100E+03  0.00000000000E+00 0.  1.
         12    1    6    6    0    0  0.20614677373E+02  0.66057039076E+02  0.38271804298E+03  0.38892364001E+03  0.00000000000E+00 0. -1.
         -5    1    3    3    0  503 -0.60890286428E+02 -0.32512013986E+01  0.45208435346E+02  0.76053204523E+02  0.47000000000E+01 0.  1.
         11    1    4    4    0    0  0.20240786363E+02  0.10622182480E+02  0.56150523157E+02  0.60625089229E+02  0.00000000000E+00 0. -1.
        -12    1    4    4    0    0  0.69750333455E+02 -0.15999670213E+02 -0.96820802611E+01  0.72213856996E+02  0.00000000000E+00 0.  1.
</event>
<event>
12    1  0.8297444E-002  0.2869998E+03  0.7818608E-02  0.1093560E+00
         21   -1    0    0  503  502  0.00000000000E+00  0.00000000000E+00  0.21638433161E+03  0.21638433161E+03  0.00000000000E+00 0.  1.
         21   -1    0    0  501  503 -0.00000000000E+00 -0.00000000000E+00 -0.57536425086E+03  0.57536425086E+03  0.00000000000E+00 0.  1.
          6    2    1    2  501    0  0.10371366356E+03 -0.18776299598E+03 -0.42137537555E+03  0.50982945671E+03  0.19067616825E+03 0.  0.
         24    2    3    3    0    0  0.11561582060E+03 -0.19411757096E+03 -0.28347102520E+03  0.37118696030E+03  0.79845400857E+02 0.  0.
         -6    2    1    2    0  502 -0.10371366356E+03  0.18776299598E+03  0.62395456294E+02  0.28191912576E+03  0.17197015391E+03 0.  0.
        -24    2    5    5    0    0 -0.22287066459E+01  0.32516587603E+02 -0.28552184936E+01  0.85245832317E+02  0.78717241136E+02 0.  0.
          5    1    3    3  501    0 -0.11902157041E+02  0.63545749811E+01 -0.13790435035E+03  0.13864249641E+03  0.47000000000E+01 0. -1.
        -13    1    4    4    0    0  0.78727823655E+02 -0.16750604235E+03 -0.26227528816E+03  0.32100571836E+03  0.00000000000E+00 0.  1.
         14    1    4    4    0    0  0.36887996946E+02 -0.26611528617E+02 -0.21195737042E+02  0.50181241941E+02  0.00000000000E+00 0. -1.
         -5    1    5    5    0  502 -0.10148495691E+03  0.15524640838E+03  0.65250674788E+02  0.19667329344E+03  0.47000000000E+01 0.  1.
         13    1    6    6    0    0 -0.31771536604E+02 -0.10040384675E+02  0.58750353914E+00  0.33325441078E+02  0.00000000000E+00 0. -1.
        -14    1    6    6    0    0  0.29542829958E+02  0.42556972278E+02 -0.34427220328E+01  0.51920391239E+02  0.00000000000E+00 0.  1.
</event>
<event>
12    1  0.8297444E-002  0.1826967E+03  0.7818608E-02  0.1165629E+00
         21   -1    0    0  501  502  0.00000000000E+00  0.00000000000E+00  0.10252596304E+03  0.10252596304E+03  0.00000000000E+00 0.  1.
         21   -1    0    0  502  503 -0.00000000000E+00 -0.00000000000E+00 -0.37674496456E+03  0.37674496456E+03  0.00000000000E+00 0.  1.
         -6    2    1    2    0  503  0.25688061007E+02 -0.57896790904E+02 -0.45622835327E+02  0.18663753132E+03  0.16952937834E+03 0.  0.
        -24    2    3    3    0    0  0.16891952259E+02 -0.61769642968E+02  0.32361087483E+02  0.10792315697E+03  0.80618490339E+02 0.  0.
          6    2    1    2  501    0 -0.25688061007E+02  0.57896790904E+02 -0.22859616619E+03  0.29263339628E+03  0.17136563993E+03 0.  0.
         24    2    5    5    0    0 -0.73058291459E+02  0.47486814735E+01 -0.10975946624E+03  0.15402274906E+03  0.79472025718E+02 0.  0.
          5    1    5    5  501    0  0.47370230452E+02  0.53148109431E+02 -0.11883669995E+03  0.13861064723E+03  0.47000000000E+01 0. -1.
        -13    1    6    6    0    0 -0.10088875504E+02 -0.15662914451E+02 -0.78750955325E+02  0.80924812404E+02  0.00000000000E+00 0.  1.
         14    1    6    6    0    0 -0.62969415955E+02  0.20411595924E+02 -0.31008510911E+02  0.73097936652E+02  0.00000000000E+00 0. -1.
         -5    1    3    3    0  503  0.87961087475E+01  0.38728520634E+01 -0.77983922810E+02  0.78714374348E+02  0.47000000000E+01 0.  1.
         11    1    4    4    0    0  0.33642834247E+02 -0.80442788025E+01 -0.11629329878E+02  0.36493725913E+02  0.00000000000E+00 0. -1.
        -12    1    4    4    0    0 -0.16750881987E+02 -0.53725364165E+02  0.43990417361E+02  0.71429431060E+02  0.00000000000E+00 0.  1.
</event>
<event>
12    1  0.8297444E-002  0.1931824E+03  0.7818608E-02  0.1155702E+00
         21   -1    0    0  501  502  0.00000000000E+00  0.00000000000E+00  0.89714009084E+02  0.89714009084E+02  0.00000000000E+00 0. -1.
         21   -1    0    0  502  503 -0.00000000000E+00 -0.00000000000E+00 -0.58240303906E+03  0.58240303906E+03  0.00000000000E+00 0. -1.
         -6    2    1    2    0  503  0.51438267525E+02  0.71190712202E+02 -0.42624145792E+03  0.46782629068E+03  0.17165559976E+03 0.  0.
        -24    2    3    3    0    0  0.92021058466E+02  0.58347979100E+02 -0.23042571882E+03  0.26738230250E+03  0.80776988894E+02 0.  0.
          6    2    1    2  501    0 -0.51438267525E+02 -0.71190712202E+02 -0.66447572050E+02  0.20429075746E+03  0.17206225874E+03 0.  0.
         24    2    5    5    0    0 -0.24251019772E+02  0.23744262739E+02 -0.56163693013E+02  0.10489435875E+03  0.81832537005E+02 0.  0.
          5    1    5    5  501    0 -0.27187247753E+02 -0.94934974941E+02 -0.10283879037E+02  0.99396398705E+02  0.47000000000E+01 0. -1.
        -13    1    6    6    0    0 -0.32849411735E+02  0.40849015058E+01 -0.71317456986E+02  0.78625377217E+02  0.00000000000E+00 0.  1.
         14    1    6    6    0    0  0.85983919626E+01  0.19659361234E+02  0.15153763973E+02  0.26268981537E+02  0.00000000000E+00 0. -1.
         -5    1    3    3    0  503 -0.40582790941E+02  0.12842733102E+02 -0.19581573911E+03  0.20044398818E+03  0.47000000000E+01 0.  1.
         11    1    4    4    0    0  0.81132842613E+00  0.42952258684E+02 -0.66836542130E+02  0.79452363991E+02  0.00000000000E+00 0. -1.
        -12    1    4    4    0    0  0.91209730040E+02  0.15395720416E+02 -0.16358917669E+03  0.18792993851E+03  0.00000000000E+00 0.  1.
</event>
<event>
12    1  0.8297444E-002  0.2179761E+03  0.7818608E-02  0.1135507E+00
         21   -1    0    0  501  502  0.00000000000E+00  0.00000000000E+00  0.22452835803E+03  0.22452835803E+03  0.00000000000E+00 0.  1.
         21   -1    0    0  502  503 -0.00000000000E+00 -0.00000000000E+00 -0.33138944874E+03  0.33138944874E+03  0.00000000000E+00 0.  1.
         -6    2    1    2    0  503  0.13233820058E+03 -0.34002227887E+02 -0.22095854279E+03  0.31038081747E+03  0.16983528310E+03 0.  0.
        -24    2    3    3    0    0  0.87590139340E+02  0.39580710594E+02 -0.16854965259E+03  0.20945698682E+03  0.78895999768E+02 0.  0.
          6    2    1    2  501    0 -0.13233820058E+03  0.34002227887E+02  0.11409745209E+03  0.24553698930E+03  0.16911721884E+03 0.  0.
         24    2    5    5    0    0 -0.15310230278E+03  0.48013153115E+02  0.10974625476E+03  0.21968206937E+03  0.10232493919E+03 0.  0.
          5    1    5    5  501    0  0.20764102207E+02 -0.14010925228E+02  0.43511973238E+01  0.25854919925E+02  0.47000000000E+01 0. -1.
        -11    1    6    6    0    0 -0.13080737257E+03  0.14038576696E+02  0.11967775879E+03  0.17784942030E+03  0.00000000000E+00 0.  1.
         12    1    6    6    0    0 -0.22294930212E+02  0.33974576419E+02 -0.99315040217E+01  0.41832649069E+02  0.00000000000E+00 0. -1.
         -5    1    3    3    0  503  0.44748061238E+02 -0.73582938482E+02 -0.52408890199E+02  0.10092383064E+03  0.47000000000E+01 0.  1.
         13    1    4    4    0    0  0.54052106019E+02  0.47939680977E+02 -0.55107943873E+02  0.90866543101E+02  0.00000000000E+00 0. -1.
        -14    1    4    4    0    0  0.33538033321E+02 -0.83589703831E+01 -0.11344170872E+03  0.11859044372E+03  0.00000000000E+00 0.  1.
</event>
<event>
12    1  0.8297444E-002  0.1799819E+03  0.7818608E-02  0.1168116E+00
         21   -1    0    0  501  502  0.00000000000E+00  0.00000000000E+00  0.16089678999E+03  0.16089678999E+03  0.00000000000E+00 0.  1.
         21   -1    0    0  502  503 -0.00000000000E+00 -0.00000000000E+00 -0.34817359871E+03  0.34817359871E+03  0.00000000000E+00 0.  1.
         -6    2    1    2    0  503  0.52120319113E+02 -0.12728762983E+02 -0.25988507397E+03  0.31612295440E+03  0.17179907320E+03 0.  0.
        -24    2    3    3    0    0  0.21376671056E+02 -0.43782023502E+02 -0.25580131091E+03  0.27198403727E+03  0.78531383649E+02 0.  0.
          6    2    1    2  501    0 -0.52120319113E+02  0.12728762983E+02  0.72608265258E+02  0.19294743430E+03  0.17052332142E+03 0.  0.
         24    2    5    5    0    0  0.10913252639E+02 -0.21236792798E+02  0.88098824890E+02  0.11953805081E+03  0.77187059748E+02 0.  0.
          5    1    5    5  501    0 -0.63033571752E+02  0.33965555781E+02 -0.15490559632E+02  0.73409383494E+02  0.47000000000E+01 0. -1.
        -11    1    6    6    0    0 -0.11719345219E+02  0.15779646142E+02 -0.17789889368E+01  0.19735883217E+02  0.00000000000E+00 0.  1.
         12    1    6    6    0    0  0.22632597858E+02 -0.37016438940E+02  0.89877813827E+02  0.99802167591E+02  0.00000000000E+00 0. -1.
         -5    1    3    3    0  503  0.30743648057E+02  0.31053260519E+02 -0.40837630653E+01  0.44138917131E+02  0.47000000000E+01 0.  1.
         13    1    4    4    0    0 -0.11321623544E+02 -0.49221567079E+02 -0.92875076554E+02  0.10572001547E+03  0.00000000000E+00 0. -1.
        -14    1    4    4    0    0  0.32698294600E+02  0.54395435769E+01 -0.16292623435E+03  0.16626402180E+03  0.00000000000E+00 0.  1.
</event>
<event>
12    1  0.8297444E-002  0.2234146E+03  0.7818608E-02  0.1131917E+00
         21   -1    0    0  501  502  0.00000000000E+00  0.00000000000E+00  0.16826582923E+04  0.16826582923E+04  0.00000000000E+00 0. -1.
         21   -1    0    0  502  503 -0.00000000000E+00 -0.00000000000E+00 -0.40393568176E+02  0.40393568176E+02  0.00000000000E+00 0.  1.
         -6    2    1    2    0  503 -0.11141646961E+02  0.14118413864E+03  0.36490865705E+03  0.42630492540E+03  0.16888002882E+03 0.  0.
        -24    2    3    3    0    0 -0.12950549911E+02  0.17167224420E+03  0.31891675528E+03  0.37089606566E+03  0.78847438439E+02 0.  0.
          6    2    1    2  501    0  0.11141646961E+02 -0.14118413864E+03  0.12773560671E+04  0.12967469351E+04  0.17279176549E+03 0.  0.
         24    2    5    5    0    0  0.17862244852E+02 -0.87419288366E+00  0.39651320605E+03  0.40476135047E+03  0.79304503398E+02 0.  0.
          5    1    5    5  501    0 -0.67205978902E+01 -0.14030994576E+03  0.88084286101E+03  0.89198558458E+03  0.47000000000E+01 0. -1.
        -11    1    6    6    0    0 -0.11046995081E+02 -0.34913109762E+02  0.18291330518E+03  0.18654285980E+03  0.00000000000E+00 0.  1.
         12    1    6    6    0    0  0.28909239933E+02  0.34038916878E+02  0.21359990087E+03  0.21821849067E+03  0.00000000000E+00 0. -1.
         -5    1    3    3    0  503  0.18089029491E+01 -0.30488105559E+02  0.45991901766E+02  0.55408859747E+02  0.47000000000E+01 0.  1.
         11    1    4    4    0    0 -0.38393532956E+02  0.90244937366E+02  0.21597824974E+03  0.23720205828E+03  0.00000000000E+00 0. -1.
        -12    1    4    4    0    0  0.25442983046E+02  0.81427306834E+02  0.10293850554E+03  0.13369400738E+03  0.00000000000E+00 0.  1.
</event>
<event>
12    1  0.8297444E-002  0.1844366E+03  0.7818608E-02  0.1163922E+00
         21   -1    0    0  501  502  0.00000000000E+00  0.00000000000E+00  0.14251571219E+04  0.14251571219E+04  0.00000000000E+00 0.  1.
         21   -1    0    0  502  503 -0.00000000000E+00 -0.00000000000E+00 -0.27398242179E+02  0.27398242179E+02  0.00000000000E+00 0.  1.
         -6    2    1    2    0  503 -0.37105074425E+02 -0.50126569496E+02  0.42890983905E+03  0.46630726446E+03  0.17201556714E+03 0.  0.
        -24    2    3    3    0    0  0.17022296395E+00 -0.38694389341E+02  0.41563447869E+03  0.42485285901E+03  0.79061034613E+02 0.  0.
          6    2    1    2  501    0  0.37105074425E+02  0.50126569496E+02  0.96884904066E+03  0.98624809960E+03  0.17357243696E+03 0.  0.
         24    2    5    5    0    0  0.50597606886E+02  0.97239534797E+02  0.73111911124E+03  0.74347394680E+03  0.78757284045E+02 0.  0.
          5    1    5    5  501    0 -0.13492532460E+02 -0.47112965301E+02  0.23772992941E+03  0.24277415281E+03  0.47000000000E+01 0. -1.
        -11    1    6    6    0    0 -0.15908098109E+02  0.46826231676E+01  0.45107054258E+02  0.48058723339E+02  0.00000000000E+00 0.  1.
         12    1    6    6    0    0  0.66505704994E+02  0.92556911629E+02  0.68601205698E+03  0.69541522346E+03  0.00000000000E+00 0. -1.
         -5    1    3    3    0  503 -0.37275297389E+02 -0.11432180155E+02  0.13275360364E+02  0.41454405451E+02  0.47000000000E+01 0.  1.
         13    1    4    4    0    0 -0.82751465741E+01 -0.60268803218E+02  0.23532698948E+03  0.24306295207E+03  0.00000000000E+00 0. -1.
        -14    1    4    4    0    0  0.84453695380E+01  0.21574413877E+02  0.18030748921E+03  0.18178990694E+03  0.00000000000E+00 0.  1.
</event>
<event>
12    1  0.8297444E-002  0.1843743E+03  0.7818608E-02  0.1163823E+00
         21   -1    0    0  503  502  0.00000000000E+00  0.00000000000E+00  0.12978613480E+04  0.12978613480E+04  0.00000000000E+00 0.  1.
         21   -1    0    0  501  503 -0.00000000000E+00 -0.00000000000E+00 -0.41568737712E+02  0.41568737712E+02  0.00000000000E+00 0. -1.
          6    2    1    2  501    0  0.49869069915E+02  0.41942852335E+02  0.21847075888E+03  0.28535794695E+03  0.17162039042E+03 0.  0.
         24    2    3    3    0    0 -0.16003229529E+02  0.13605318269E+02  0.19103921017E+03  0.20843749756E+03  0.80678389454E+02 0.  0.
         -6    2    1    2    0  502 -0.49869069915E+02 -0.41942852335E+02  0.10378218514E+04  0.10540721387E+04  0.17247536475E+03 0.  0.
        -24    2    5    5    0    0 -0.93043317696E+02 -0.17120867300E+02  0.51717703887E+03  0.53102982935E+03  0.74635159640E+02 0.  0.
          5    1    3    3  501    0  0.65872299444E+02  0.28337534066E+02  0.27431548709E+02  0.76920449398E+02  0.47000000000E+01 0. -1.
        -11    1    4    4    0    0 -0.44276930987E+02  0.88365103437E+01  0.64769947631E+02  0.78953636071E+02  0.00000000000E+00 0.  1.
         12    1    4    4    0    0  0.28273701458E+02  0.47688079252E+01  0.12626926254E+03  0.12948386148E+03  0.00000000000E+00 0. -1.
         -5    1    5    5    0  502  0.43174247781E+02 -0.24821985036E+02  0.52064481251E+03  0.52304230938E+03  0.47000000000E+01 0.  1.
         13    1    6    6    0    0 -0.26791885430E+02  0.32056969010E+01  0.36542432248E+02  0.45425003821E+02  0.00000000000E+00 0. -1.
        -14    1    6    6    0    0 -0.66251432266E+02 -0.20326564201E+02  0.48063460662E+03  0.48560482553E+03  0.00000000000E+00 0.  1.
</event>
<event>
12    1  0.8297444E-002  0.2117678E+03  0.7818608E-02  0.1140206E+00
         21   -1    0    0  501  502  0.00000000000E+00  0.00000000000E+00  0.24650641235E+03  0.24650641235E+03  0.00000000000E+00 0.  1.
         21   -1    0    0  502  503 -0.00000000000E+00 -0.00000000000E+00 -0.25387270490E+03  0.25387270490E+03  0.00000000000E+00 0.  1.
         -6    2    1    2    0  503 -0.12318744654E+03  0.35471615411E+01 -0.13700138832E+03  0.25208318505E+03  0.17201401815E+03 0.  0.
        -24    2    3    3    0    0 -0.46322137445E+02 -0.45085517327E+02 -0.11735051063E+03  0.15890775808E+03  0.85452261192E+02 0.  0.
          6    2    1    2  501    0  0.12318744654E+03 -0.35471615411E+01  0.12963509577E+03  0.24829593220E+03  0.17221464093E+03 0.  0.
         24    2    5    5    0    0  0.15191371413E+03 -0.25669872080E+02  0.94053205345E+02  0.19727854597E+03  0.79599625585E+02 0.  0.
          5    1    5    5  501    0 -0.28726267587E+02  0.22122710539E+02  0.35581890426E+02  0.51017386226E+02  0.47000000000E+01 0. -1.
        -13    1    6    6    0    0  0.44993709761E+02 -0.26043185866E+02  0.70836437342E+02  0.87866275120E+02  0.00000000000E+00 0.  1.
         14    1    6    6    0    0  0.10692000437E+03  0.37331378613E+00  0.23216768003E+02  0.10941227086E+03  0.00000000000E+00 0. -1.
         -5    1    3    3    0  503 -0.76865309097E+02  0.48632678868E+02 -0.19650877694E+02  0.93175426967E+02  0.47000000000E+01 0.  1.
         11    1    4    4    0    0 -0.73693776603E+00  0.23279654528E+02 -0.38672167768E+02  0.45144456493E+02  0.00000000000E+00 0. -1.
        -12    1    4    4    0    0 -0.45585199679E+02 -0.68365171854E+02 -0.78678342862E+02  0.11376330159E+03  0.00000000000E+00 0.  1.
</event>
<event>
12    1  0.8297444E-002  0.2893492E+03  0.7818608E-02  0.1090697E+00
         21   -1    0    0  501  502  0.00000000000E+00  0.00000000000E+00  0.11750571540E+03  0.11750571540E+03  0.00000000000E+00 0.  1.
         21   -1    0    0  502  503 -0.00000000000E+00 -0.00000000000E+00 -0.78499722267E+03  0.78499722267E+03  0.00000000000E+00 0. -1.
         -6    2    1    2    0  503  0.23163090757E+03  0.21219031968E+02 -0.47097703958E+03  0.55273029705E+03  0.17201245538E+03 0.  0.
        -24    2    3    3    0    0  0.18688894063E+03  0.33509863324E+02 -0.23348364914E+03  0.31070114872E+03  0.77267084370E+02 0.  0.
          6    2    1    2  501    0 -0.23163090757E+03 -0.21219031968E+02 -0.19651446770E+03  0.34977264102E+03  0.17210415373E+03 0.  0.
         24    2    5    5    0    0 -0.24336671540E+03 -0.20767179906E+02 -0.14151988952E+03  0.29334191371E+03  0.79768197198E+02 0.  0.
          5    1    5    5  501    0  0.11735807827E+02 -0.45185206255E+00 -0.54994578179E+02  0.56430727310E+02  0.47000000000E+01 0. -1.
        -11    1    6    6    0    0 -0.83592282967E+02 -0.65325246592E+01 -0.72578557440E+01  0.84160680368E+02  0.00000000000E+00 0.  1.
         12    1    6    6    0    0 -0.15977443243E+03 -0.14234655247E+02 -0.13426203377E+03  0.20918123334E+03  0.00000000000E+00 0. -1.
         -5    1    3    3    0  503  0.44741966939E+02 -0.12290831356E+02 -0.23749339044E+03  0.24202914833E+03  0.47000000000E+01 0.  1.
         13    1    4    4    0    0  0.17736623695E+03  0.16171260867E+02 -0.22953703883E+03  0.29052976419E+03  0.00000000000E+00 0. -1.
        -14    1    4    4    0    0  0.95227036825E+01  0.17338602457E+02 -0.39466103096E+01  0.20171384522E+02  0.00000000000E+00 0.  1.
</event>
<event>
12    1  0.8297444E-002  0.1903504E+03  0.7818608E-02  0.1159325E+00
         21   -1    0    0  501  502  0.00000000000E+00  0.00000000000E+00  0.17829065272E+04  0.17829065272E+04  0.00000000000E+00 0.  1.
         21   -1    0    0  502  503 -0.00000000000E+00 -0.00000000000E+00 -0.46736864012E+02  0.46736864012E+02  0.00000000000E+00 0.  1.
         -6    2    1    2    0  503 -0.76280128886E+02  0.10446904670E+02  0.16822254608E+03  0.25018416797E+03  0.16842059557E+03 0.  0.
        -24    2    3    3    0    0 -0.65998494303E+01 -0.20095106293E+02  0.15322814354E+03  0.17249840424E+03  0.76350927848E+02 0.  0.
          6    2    1    2  501    0  0.76280128886E+02 -0.10446904670E+02  0.15679471171E+04  0.15794592233E+04  0.17408469194E+03 0.  0.
         24    2    5    5    0    0  0.61338307408E+02 -0.18236246610E+02  0.45677744454E+03  0.46815185662E+03  0.80159705410E+02 0.  0.
          5    1    5    5  501    0  0.14941821478E+02  0.77893419402E+01  0.11111696726E+04  0.11113073666E+04  0.47000000000E+01 0. -1.
        -11    1    6    6    0    0 -0.35171138085E+01  0.16178481657E+02  0.21083847337E+03  0.21148752968E+03  0.00000000000E+00 0.  1.
         12    1    6    6    0    0  0.64855421216E+02 -0.34414728267E+02  0.24593897117E+03  0.25666432694E+03  0.00000000000E+00 0. -1.
         -5    1    3    3    0  503 -0.69680279456E+02  0.30542010963E+02  0.14994402545E+02  0.77685763730E+02  0.47000000000E+01 0.  1.
         13    1    4    4    0    0 -0.12559473198E+02  0.50867675579E+01  0.14458069741E+03  0.14521430244E+03  0.00000000000E+00 0. -1.
        -14    1    4    4    0    0  0.59596237679E+01 -0.25181873851E+02  0.86474461270E+01  0.27284101792E+02  0.00000000000E+00 0.  1.
</event>
<event>
12    1  0.8297444E-002  0.2652791E+03  0.7818608E-02  0.1104107E+00
         21   -1    0    0  503  502  0.00000000000E+00  0.00000000000E+00  0.31875703433E+04  0.31875703433E+04  0.00000000000E+00 0. -1.
         21   -1    0    0  501  503 -0.00000000000E+00 -0.00000000000E+00 -0.22084765450E+02  0.22084765450E+02  0.00000000000E+00 0. -1.
          6    2    1    2  501    0  0.19413941888E+03  0.51849977473E+02  0.14965410447E+04  0.15197590075E+04  0.17220281204E+03 0.  0.
         24    2    3    3    0    0  0.84708269369E+02 -0.39830606494E+02  0.65213229704E+03  0.66335447168E+03  0.77463889270E+02 0.  0.
         -6    2    1    2    0  502 -0.19413941888E+03 -0.51849977473E+02  0.16689445331E+04  0.16898961012E+04  0.17318904106E+03 0.  0.
        -24    2    5    5    0    0 -0.19022720936E+03 -0.26335429027E+01  0.11261692014E+04  0.11448596679E+04  0.79077571734E+02 0.  0.
          5    1    3    3  501    0  0.10943114951E+03  0.91680583966E+02  0.84440874762E+03  0.85640453584E+03  0.47000000000E+01 0. -1.
        -11    1    4    4    0    0  0.25148019968E+02 -0.37309610972E+02  0.12479440782E+03  0.13265773329E+03  0.00000000000E+00 0.  1.
         12    1    4    4    0    0  0.59560249401E+02 -0.25209955217E+01  0.52733788922E+03  0.53069673839E+03  0.00000000000E+00 0. -1.
         -5    1    5    5    0  502 -0.39122095209E+01 -0.49216434570E+02  0.54277533174E+03  0.54503643324E+03  0.47000000000E+01 0.  1.
         13    1    6    6    0    0 -0.70554642479E+02 -0.23947230714E+02  0.61191801147E+03  0.61643740979E+03  0.00000000000E+00 0. -1.
        -14    1    6    6    0    0 -0.11967256688E+03  0.21313687811E+02  0.51425118994E+03  0.52842225815E+03  0.00000000000E+00 0.  1.
</event>
<event>
12    1  0.8297444E-002  0.3357262E+03  0.7818608E-02  0.1068824E+00
         21   -1    0    0  503  502  0.00000000000E+00  0.00000000000E+00  0.12712147196E+03  0.12712147196E+03  0.00000000000E+00 0. -1.
         21   -1    0    0  501  503 -0.00000000000E+00 -0.00000000000E+00 -0.94599813770E+03  0.94599813770E+03  0.00000000000E+00 0.  1.
          6    2    1    2  501    0 -0.10361781618E+03  0.26775844507E+03 -0.55006089730E+03  0.64442148004E+03  0.17401383986E+03 0.  0.
         24    2    3    3    0    0 -0.75638016883E+02  0.62966058110E+02 -0.17466139256E+03  0.21585448518E+03  0.80004516432E+02 0.  0.
         -6    2    1    2    0  502  0.10361781618E+03 -0.26775844507E+03 -0.26881576844E+03  0.42869812962E+03  0.17055477782E+03 0.  0.
        -24    2    5    5    0    0 -0.71916541513E+01 -0.75102141122E+02 -0.70180296078E+02  0.13058182505E+03  0.80214011158E+02 0.  0.
          5    1    3    3  501    0 -0.27979799299E+02  0.20479238696E+03 -0.37539950474E+03  0.42856699486E+03  0.47000000000E+01 0. -1.
        -11    1    4    4    0    0 -0.70267565359E+02  0.34104240700E+02 -0.62850411720E+02  0.10025369933E+03  0.00000000000E+00 0.  1.
         12    1    4    4    0    0 -0.53704515246E+01  0.28861817410E+02 -0.11181098084E+03  0.11560078585E+03  0.00000000000E+00 0. -1.
         -5    1    5    5    0  502  0.11080947033E+03 -0.19265630394E+03 -0.19863547237E+03  0.29811630456E+03  0.47000000000E+01 0.  1.
         11    1    6    6    0    0  0.95356161505E+01 -0.85707585565E+02 -0.41436315812E+02  0.95674899879E+02  0.00000000000E+00 0. -1.
        -12    1    6    6    0    0 -0.16727270302E+02  0.10605444443E+02 -0.28743980266E+02  0.34906925174E+02  0.00000000000E+00 0.  1.
</event>
<event>
12    1  0.8297444E-002  0.2058373E+03  0.7818608E-02  0.1144996E+00
         21   -1    0    0  503  502  0.00000000000E+00  0.00000000000E+00  0.69782648392E+02  0.69782648392E+02  0.00000000000E+00 0. -1.
         21   -1    0    0  501  503 -0.00000000000E+00 -0.00000000000E+00 -0.11829132456E+04  0.11829132456E+04  0.00000000000E+00 0. -1.
          6    2    1    2  501    0 -0.10305594410E+03 -0.41896727780E+02 -0.99435131766E+03  0.10154326917E+04  0.17318529095E+03 0.  0.
         24    2    3    3    0    0 -0.10448013465E+03 -0.88332387845E+02 -0.74998468836E+03  0.76664475316E+03  0.80922404091E+02 0.  0.
         -6    2    1    2    0  502  0.10305594410E+03  0.41896727780E+02 -0.11877927950E+03  0.23726320226E+03  0.17265412388E+03 0.  0.
        -24    2    5    5    0    0  0.12136000173E+03  0.53544534691E+02 -0.46489326894E+02  0.16164153090E+03  0.79821424322E+02 0.  0.
          5    1    3    3  501    0  0.14241905513E+01  0.46435660065E+02 -0.24436662930E+03  0.24878793853E+03  0.47000000000E+01 0. -1.
        -13    1    4    4    0    0  0.10440739979E+02 -0.52653577686E+01 -0.13585705416E+03  0.13635934955E+03  0.00000000000E+00 0.  1.
         14    1    4    4    0    0 -0.11492087463E+03 -0.83067030076E+02 -0.61412763420E+03  0.63028540361E+03  0.00000000000E+00 0. -1.
         -5    1    5    5    0  502 -0.18304057626E+02 -0.11647806912E+02 -0.72289952606E+02  0.75621671360E+02  0.47000000000E+01 0.  1.
         11    1    6    6    0    0  0.62789364404E+02  0.32932201896E+02 -0.65683539172E+02  0.96650719201E+02  0.00000000000E+00 0. -1.
        -12    1    6    6    0    0  0.58570637326E+02  0.20612332796E+02  0.19194212278E+02  0.64990811697E+02  0.00000000000E+00 0.  1.
</event>
<event>
12    1  0.8297444E-002  0.1812507E+03  0.7818608E-02  0.1166898E+00
         21   -1    0    0  503  502  0.00000000000E+00  0.00000000000E+00  0.15266620225E+03  0.15266620225E+03  0.00000000000E+00 0. -1.
         21   -1    0    0  501  503 -0.00000000000E+00 -0.00000000000E+00 -0.37259206513E+03  0.37259206513E+03  0.00000000000E+00 0. -1.
          6    2    1    2  501    0 -0.50197040478E+02  0.20054961210E+02 -0.28167824771E+03  0.33495441414E+03  0.17300254325E+03 0.  0.
         24    2    3    3    0    0  0.38090194480E+02  0.21233442670E+02 -0.16869915671E+03  0.19148877477E+03  0.79415510980E+02 0.  0.
         -6    2    1    2    0  502  0.50197040478E+02 -0.20054961210E+02  0.61752384841E+02  0.19030385325E+03  0.17169815137E+03 0.  0.
        -24    2    5    5    0    0  0.57014059274E+02  0.43626738311E+02  0.10541309742E+02  0.10816680428E+03  0.80218720306E+02 0.  0.
          5    1    3    3  501    0 -0.88287234958E+02 -0.11784814597E+01 -0.11297909101E+03  0.14346563937E+03  0.47000000000E+01 0. -1.
        -11    1    4    4    0    0  0.28835489237E+02 -0.28007875036E+02 -0.82883733896E+02  0.92117532794E+02  0.00000000000E+00 0.  1.
         12    1    4    4    0    0  0.92547052434E+01  0.49241317706E+02 -0.85815422812E+02  0.99371241972E+02  0.00000000000E+00 0. -1.
         -5    1    5    5    0  502 -0.68170187963E+01 -0.63681699521E+02  0.51211075099E+02  0.82137048961E+02  0.47000000000E+01 0.  1.
         13    1    6    6    0    0  0.43334113134E+02  0.53981050215E+02  0.35566434591E+02  0.77825255624E+02  0.00000000000E+00 0. -1.
        -14    1    6    6    0    0  0.13679946140E+02 -0.10354311904E+02 -0.25025124849E+02  0.30341548660E+02  0.00000000000E+00 0.  1.
</event>
<event>
12    1  0.8297444E-002  0.1932705E+03  0.7818608E-02  0.1155718E+00
         21   -1    0    0  503  502  0.00000000000E+00  0.00000000000E+00  0.11627141928E+04  0.11627141928E+04  0.00000000000E+00 0.  1.
         21   -1    0    0  501  503 -0.00000000000E+00 -0.00000000000E+00 -0.10483637708E+03  0.10483637708E+03  0.00000000000E+00 0.  1.
          6    2    1    2  501    0  0.77786644325E+02 -0.37478621908E+02  0.98496211512E+00  0.19327298299E+03  0.17291057419E+03 0.  0.
         24    2    3    3    0    0  0.58448788692E+02  0.25311605432E+02 -0.46556707203E+02  0.11203958080E+03  0.79551256500E+02 0.  0.
         -6    2    1    2    0  502 -0.77786644325E+02  0.37478621908E+02  0.10568928536E+04  0.10742775869E+04  0.17203028971E+03 0.  0.
        -24    2    5    5    0    0 -0.83689606182E+02 -0.11733523443E+02  0.43941675913E+03  0.45479756506E+03  0.81314889327E+02 0.  0.
          5    1    3    3  501    0  0.19337855633E+02 -0.62790227340E+02  0.47541669318E+02  0.81233402191E+02  0.47000000000E+01 0. -1.
        -11    1    4    4    0    0  0.67506243046E+02 -0.74300260733E+01 -0.29901641669E+02  0.74205163649E+02  0.00000000000E+00 0.  1.
         12    1    4    4    0    0 -0.90574543547E+01  0.32741631506E+02 -0.16655065534E+02  0.37834417149E+02  0.00000000000E+00 0. -1.
         -5    1    5    5    0  502  0.59029618574E+01  0.49212145351E+02  0.61747609447E+03  0.61948002184E+03  0.47000000000E+01 0.  1.
         11    1    6    6    0    0 -0.10366481673E+02 -0.31841858642E+02  0.69481166760E+02  0.77129763635E+02  0.00000000000E+00 0. -1.
        -12    1    6    6    0    0 -0.73323124509E+02  0.20108335199E+02  0.36993559237E+03  0.37766780142E+03  0.00000000000E+00 0.  1.
</event>
<event>
12    1  0.8297444E-002  0.2067202E+03  0.7818608E-02  0.1144763E+00
         21   -1    0    0  503  502  0.00000000000E+00  0.00000000000E+00  0.83066237078E+03  0.83066237078E+03  0.00000000000E+00 0. -1.
         21   -1    0    0  501  503 -0.00000000000E+00 -0.00000000000E+00 -0.72224312284E+02  0.72224312284E+02  0.00000000000E+00 0. -1.
          6    2    1    2  501    0 -0.10370703033E+03  0.32732264070E+02  0.13486702886E+03  0.24682456544E+03  0.17580301870E+03 0.  0.
         24    2    3    3    0    0 -0.36403394752E+02  0.81692333843E+02  0.99433377637E+02  0.15624586247E+03  0.80789407667E+02 0.  0.
         -6    2    1    2    0  502  0.10370703033E+03 -0.32732264070E+02  0.62357102964E+03  0.65606211762E+03  0.17248224233E+03 0.  0.
        -24    2    5    5    0    0  0.40243925682E+02 -0.16332929268E+02  0.54950051452E+03  0.55704174070E+03  0.80363843233E+02 0.  0.
          5    1    3    3  501    0 -0.67303635580E+02 -0.48960069773E+02  0.35433651218E+02  0.90578702977E+02  0.47000000000E+01 0. -1.
        -13    1    4    4    0    0  0.94542217044E+01  0.12907517570E+02  0.64574946585E+02  0.66527513438E+02  0.00000000000E+00 0.  1.
         14    1    4    4    0    0 -0.45857616457E+02  0.68784816273E+02  0.34858431053E+02  0.89718349028E+02  0.00000000000E+00 0. -1.
         -5    1    5    5    0  502  0.63463104651E+02 -0.16399334802E+02  0.74070515121E+02  0.99020376913E+02  0.47000000000E+01 0.  1.
         13    1    6    6    0    0  0.10244046428E+02 -0.20115262957E+02  0.34966075123E+02  0.41619595151E+02  0.00000000000E+00 0. -1.
        -14    1    6    6    0    0  0.29999879253E+02  0.37823336887E+01  0.51453443939E+03  0.51542214555E+03  0.00000000000E+00 0.  1.
</event>
<event>
12    1  0.8297444E-002  0.2325122E+03  0.7818608E-02  0.1124990E+00
         21   -1    0    0  503  502  0.00000000000E+00  0.00000000000E+00  0.83434919706E+03  0.83434919706E+03  0.00000000000E+00 0. -1.
         21   -1    0    0  501  503 -0.00000000000E+00 -0.00000000000E+00 -0.10555517214E+03  0.10555517214E+03  0.00000000000E+00 0.  1.
          6    2    1    2  501    0  0.10752188842E+03 -0.10998624224E+03  0.72049886908E+02  0.24341961165E+03  0.17436740280E+03 0.  0.
         24    2    3    3    0    0  0.12980736038E+03 -0.42974699250E+02  0.31809710810E+02  0.16200369842E+03  0.80849026049E+02 0.  0.
         -6    2    1    2    0  502 -0.10752188842E+03  0.10998624224E+03  0.65674413801E+03  0.69648475755E+03  0.17355179258E+03 0.  0.
        -24    2    5    5    0    0  0.33737870289E+01  0.16752322161E+02  0.18031752191E+03  0.19849396926E+03  0.81199903865E+02 0.  0.
          5    1    3    3  501    0 -0.22285471963E+02 -0.67011542993E+02  0.40240176098E+02  0.81415913232E+02  0.47000000000E+01 0. -1.
        -13    1    4    4    0    0  0.12631316983E+03 -0.61115778424E+02  0.26746730656E+02  0.14284797109E+03  0.00000000000E+00 0.  1.
         14    1    4    4    0    0  0.34941905554E+01  0.18141079174E+02  0.50629801536E+01  0.19155727323E+02  0.00000000000E+00 0. -1.
         -5    1    5    5    0  502 -0.11089567545E+03  0.93233920082E+02  0.47642661610E+03  0.49799078828E+03  0.47000000000E+01 0.  1.
         13    1    6    6    0    0  0.12239583120E+02  0.18011091404E+02  0.18640073231E+03  0.18766843052E+03  0.00000000000E+00 0. -1.
        -14    1    6    6    0    0 -0.88657960911E+01 -0.12587692430E+01 -0.60832103957E+01  0.10825538742E+02  0.00000000000E+00 0.  1.
</event>
<event>
12    1  0.8297444E-002  0.2306506E+03  0.7818608E-02  0.1126463E+00
         21   -1    0    0  503  502  0.00000000000E+00  0.00000000000E+00  0.11444476457E+03  0.11444476457E+03  0.00000000000E+00 0.  1.
         21   -1    0    0  501  503 -0.00000000000E+00 -0.00000000000E+00 -0.10374447976E+04  0.10374447976E+04  0.00000000000E+00 0. -1.
          6    2    1    2  501    0  0.11598670111E+03  0.99564355072E+02 -0.89128935781E+03  0.92064999720E+03  0.17272441164E+03 0.  0.
         24    2    3    3    0    0 -0.77209924577E+01  0.18398362226E+02 -0.30051757873E+03  0.31161395821E+03  0.79964556945E+02 0.  0.
         -6    2    1    2    0  502 -0.11598670111E+03 -0.99564355072E+02 -0.31710675217E+02  0.23123956497E+03  0.17058778927E+03 0.  0.
        -24    2    5    5    0    0 -0.14701196876E+03 -0.62141517144E+02 -0.18255573045E+02  0.18058222783E+03  0.82477802763E+02 0.  0.
          5    1    3    3  501    0  0.12370769357E+03  0.81165992846E+02 -0.59077177907E+03  0.60903603899E+03  0.47000000000E+01 0. -1.
        -13    1    4    4    0    0  0.76041471437E+01 -0.15262720132E+02 -0.24057995845E+03  0.24118351951E+03  0.00000000000E+00 0.  1.
         14    1    4    4    0    0 -0.15325139601E+02  0.33661082358E+02 -0.59937620286E+02  0.70430438696E+02  0.00000000000E+00 0. -1.
         -5    1    5    5    0  502  0.31025267649E+02 -0.37422837928E+02 -0.13455102172E+02  0.50657337136E+02  0.47000000000E+01 0.  1.
         11    1    6    6    0    0 -0.33368835376E+02  0.20454779563E+02 -0.26218769744E+01  0.39226922135E+02  0.00000000000E+00 0. -1.
        -12    1    6    6    0    0 -0.11364313338E+03 -0.82596296706E+02 -0.15633696070E+02  0.14135530569E+03  0.00000000000E+00 0.  1.
</event>
<event>
12    1  0.8297444E-002  0.3052026E+03  0.7818608E-02  0.1082755E+00
         21   -1    0    0  501  502  0.00000000000E+00  0.00000000000E+00  0.52212300861E+03  0.52212300861E+03  0.00000000000E+00 0.  1.
         21   -1    0    0  502  503 -0.00000000000E+00 -0.00000000000E+00 -0.23425978010E+03  0.23425978010E+03  0.00000000000E+00 0.  1.
         -6    2    1    2    0  503 -0.15911647634E+03  0.19434634188E+03 -0.41297128970E+02  0.30798389103E+03  0.17337840300E+03 0.  0.
        -24    2    3    3    0    0 -0.18692146473E+03  0.15367362149E+03 -0.43396115413E+02  0.25844720455E+03  0.79727779278E+02 0.  0.
          6    2    1    2  501    0  0.15911647634E+03 -0.19434634188E+03  0.32916035748E+03  0.44839889768E+03  0.17212343493E+03 0.  0.
         24    2    5    5    0    0  0.15764563778E+03 -0.21785157023E+03  0.30513993592E+03  0.41443229970E+03  0.79575729864E+02 0.  0.
          5    1    5    5  501    0  0.14708385609E+01  0.23505228347E+02  0.24020421565E+02  0.33966597973E+02  0.47000000000E+01 0. -1.
        -13    1    6    6    0    0  0.76338683673E+02 -0.16926033152E+03  0.20517972022E+03  0.27672255427E+03  0.00000000000E+00 0.  1.
         14    1    6    6    0    0  0.81306954109E+02 -0.48591238709E+02  0.99960215693E+02  0.13770974543E+03  0.00000000000E+00 0. -1.
         -5    1    3    3    0  503  0.27804988387E+02  0.40672720390E+02  0.20989864431E+01  0.49536686478E+02  0.47000000000E+01 0.  1.
         13    1    4    4    0    0 -0.18271647199E+02  0.71824527097E+01  0.18148412790E+02  0.26735848689E+02  0.00000000000E+00 0. -1.
        -14    1    4    4    0    0 -0.16864981753E+03  0.14649116878E+03 -0.61544528203E+02  0.23171135586E+03  0.00000000000E+00 0.  1.
</event>
<event>
12    1  0.8297444E-002  0.2363015E+03  0.7818608E-02  0.1122339E+00
         21   -1    0    0  501  502  0.00000000000E+00  0.00000000000E+00  0.12694734544E+03  0.12694734544E+03  0.00000000000E+00 0. -1.
         21   -1    0    0  502  503 -0.00000000000E+00 -0.00000000000E+00 -0.53194638389E+03  0.53194638389E+03  0.00000000000E+00 0. -1.
         -6    2    1    2    0  503  0.27164811336E+02 -0.15956317868E+03 -0.65073851539E+02  0.24509794840E+03  0.17216289725E+03 0.  0.
        -24    2    3    3    0    0  0.11439591097E+02 -0.97902307491E+02  0.29153435040E+02  0.13129892765E+03  0.81693081533E+02 0.  0.
          6    2    1    2  501    0 -0.27164811336E+02  0.15956317868E+03 -0.33992518692E+03  0.41379578093E+03  0.17169589585E+03 0.  0.
         24    2    5    5    0    0 -0.45956173603E+02  0.11958665831E+03 -0.13168892521E+03  0.20087403905E+03  0.81212485514E+02 0.  0.
          5    1    5    5  501    0  0.18791362268E+02  0.39976520364E+02 -0.20823626171E+03  0.21292174188E+03  0.47000000000E+01 0. -1.
        -13    1    6    6    0    0 -0.38051756033E+02  0.86818126881E+01 -0.47093021876E+02  0.61164227438E+02  0.00000000000E+00 0.  1.
         14    1    6    6    0    0 -0.79044175706E+01  0.11090484562E+03 -0.84595903335E+02  0.13970981161E+03  0.00000000000E+00 0. -1.
         -5    1    3    3    0  503  0.15725220239E+02 -0.61660871186E+02 -0.94227286579E+02  0.11379902075E+03  0.47000000000E+01 0.  1.
         11    1    4    4    0    0 -0.37227065869E+01 -0.10657918416E+03  0.35969478931E+02  0.11254681006E+03  0.00000000000E+00 0. -1.
        -12    1    4    4    0    0  0.15162297684E+02  0.86768766663E+01 -0.68160438910E+01  0.18752117589E+02  0.00000000000E+00 0.  1.
</event>
<event>
12    1  0.8297444E-002  0.2542646E+03  0.7818608E-02  0.1110681E+00
         21   -1    0    0  503  502  0.00000000000E+00  0.00000000000E+00  0.24466659820E+03  0.24466659820E+03  0.00000000000E+00 0.  1.
         21   -1    0    0  501  503 -0.00000000000E+00 -0.00000000000E+00 -0.27584688080E+03  0.27584688080E+03  0.00000000000E+00 0.  1.
          6    2    1    2  501    0  0.11337196191E+03  0.14873078831E+03  0.38434311051E+02  0.25715304714E+03  0.17226852368E+03 0.  0.
         24    2    3    3    0    0 -0.37327332522E+01  0.49077111312E+02 -0.65422411122E+01  0.96874086534E+02  0.83182279188E+02 0.  0.
         -6    2    1    2    0  502 -0.11337196191E+03 -0.14873078831E+03 -0.69614593649E+02  0.26336043186E+03  0.17186761266E+03 0.  0.
        -24    2    5    5    0    0 -0.81710823530E+02 -0.13149587126E+03  0.11692658143E+02  0.17429624577E+03  0.79212626480E+02 0.  0.
          5    1    3    3  501    0  0.11710469517E+03  0.99653676994E+02  0.44976552164E+02  0.16027896061E+03  0.47000000000E+01 0. -1.
        -11    1    4    4    0    0  0.27744719641E+02 -0.96402706847E+01  0.31896792259E+01  0.29544514557E+02  0.00000000000E+00 0.  1.
         12    1    4    4    0    0 -0.31477452893E+02  0.58717381997E+02 -0.97319203381E+01  0.67329571978E+02  0.00000000000E+00 0. -1.
         -5    1    5    5    0  502 -0.31661138384E+02 -0.17234917044E+02 -0.81307251792E+02  0.89064186087E+02  0.47000000000E+01 0.  1.
         11    1    6    6    0    0  0.14750861289E+02 -0.31629235283E+02  0.53310172044E+01  0.35304619780E+02  0.00000000000E+00 0. -1.
        -12    1    6    6    0    0 -0.96461684819E+02 -0.99866635978E+02  0.63616409390E+01  0.13899162599E+03  0.00000000000E+00 0.  1.
</event>
<event>
12    1  0.8297444E-002  0.4691650E+03  0.7818608E-02  0.1022166E+00
         21   -1    0    0  501  502  0.00000000000E+00  0.00000000000E+00  0.76038950668E+03  0.76038950668E+03  0.00000000000E+00 0. -1.
         21   -1    0    0  502  503 -0.00000000000E+00 -0.00000000000E+00 -0.79417961834E+03  0.79417961834E+03  0.00000000000E+00 0. -1.
         -6    2    1    2    0  503  0.24906459509E+03 -0.35835252141E+03 -0.63658878365E+03  0.79079772162E+03  0.17223836660E+03 0.  0.
        -24    2    3    3    0    0  0.14940190951E+03 -0.14010376331E+03 -0.38438312023E+03  0.44266705942E+03  0.79080638062E+02 0.  0.
          6    2    1    2  501    0 -0.24906459509E+03  0.35835252141E+03  0.60279867199E+03  0.76377140340E+03  0.17184532458E+03 0.  0.
         24    2    5    5    0    0 -0.46627975125E+02  0.15192527220E+03  0.19670989152E+03  0.26525060951E+03  0.80047785907E+02 0.  0.
          5    1    5    5  501    0 -0.20243661997E+03  0.20642724921E+03  0.40608878047E+03  0.49852079389E+03  0.47000000000E+01 0. -1.
        -13    1    6    6    0    0 -0.66479975000E+02  0.12067068874E+03  0.13259939226E+03  0.19121611079E+03  0.00000000000E+00 0.  1.
         14    1    6    6    0    0  0.19851999875E+02  0.31254583456E+02  0.64110499258E+02  0.74034498723E+02  0.00000000000E+00 0. -1.
         -5    1    3    3    0  503  0.99662685579E+02 -0.21824875809E+03 -0.25220566341E+03  0.34813066220E+03  0.47000000000E+01 0.  1.
         11    1    4    4    0    0  0.14100596191E+03 -0.12292984234E+03 -0.37924447055E+03  0.42287207980E+03  0.00000000000E+00 0. -1.
        -12    1    4    4    0    0  0.83959476058E+01 -0.17173920972E+02 -0.51386496868E+01  0.19794979625E+02  0.00000000000E+00 0.  1.
</event>
<event>
12    1  0.8297444E-002  0.1936093E+03  0.7818608E-02  0.1155619E+00
         21   -1    0    0  503  502  0.00000000000E+00  0.00000000000E+00  0.59111350705E+02  0.59111350705E+02  0.00000000000E+00 0. -1.
         21   -1    0    0  501  503 -0.00000000000E+00 -0.00000000000E+00 -0.84619006708E+03  0.84619006708E+03  0.00000000000E+00 0. -1.
          6    2    1    2  501    0 -0.87596830841E+02  0.15591038599E+02 -0.62178238803E+03  0.65072837938E+03  0.17005234608E+03 0.  0.
         24    2    3    3    0    0 -0.27946463352E+01 -0.41238957043E+02 -0.31821088102E+03  0.33041789131E+03  0.78799469976E+02 0.  0.
         -6    2    1    2    0  502  0.87596830841E+02 -0.15591038599E+02 -0.16529632834E+03  0.25457303841E+03  0.17195426852E+03 0.  0.
        -24    2    5    5    0    0  0.10983970391E+03  0.27867327272E+02 -0.10424173459E+03  0.17625874606E+03  0.85787282559E+02 0.  0.
          5    1    3    3  501    0 -0.84802184506E+02  0.56829995643E+02 -0.30357150701E+03  0.32031048807E+03  0.47000000000E+01 0. -1.
        -13    1    4    4    0    0 -0.13864910787E+02  0.10022562396E+00 -0.57013658521E+01  0.14991710005E+02  0.00000000000E+00 0.  1.
         14    1    4    4    0    0  0.11070264451E+02 -0.41339182667E+02 -0.31250951517E+03  0.31542618130E+03  0.00000000000E+00 0. -1.
         -5    1    5    5    0  502 -0.22242873069E+02 -0.43458365872E+02 -0.61054593759E+02  0.78314292346E+02  0.47000000000E+01 0.  1.
         11    1    6    6    0    0  0.64341257714E+02 -0.13247369914E+02 -0.14021494550E+02  0.67170622770E+02  0.00000000000E+00 0. -1.
        -12    1    6    6    0    0  0.45498446196E+02  0.41114697186E+02 -0.90220240035E+02  0.10908812329E+03  0.00000000000E+00 0.  1.
</event>
<event>
12    1  0.8297444E-002  0.2706277E+03  0.7818608E-02  0.1101011E+00
         21   -1    0    0  501  502  0.00000000000E+00  0.00000000000E+00  0.20917929005E+03  0.20917929005E+03  0.00000000000E+00 0.  1.
         21   -1    0    0  502  503 -0.00000000000E+00 -0.00000000000E+00 -0.62577874717E+03  0.62577874717E+03  0.00000000000E+00 0. -1.
         -6    2    1    2    0  503 -0.12595409668E+03 -0.16601427130E+03 -0.48565286306E+03  0.55565935931E+03  0.17167832550E+03 0.  0.
        -24    2    3    3    0    0 -0.33654968237E+02 -0.40958590968E+02 -0.93612931339E+02  0.13390652843E+03  0.79732768548E+02 0.  0.
          6    2    1    2  501    0  0.12595409668E+03  0.16601427130E+03  0.69053405937E+02  0.27929867791E+03  0.17266790629E+03 0.  0.
         24    2    5    5    0    0  0.25701886606E+02  0.14305444110E+03  0.55643400866E+02  0.17547393296E+03  0.81054012821E+02 0.  0.
          5    1    5    5  501    0  0.10025221007E+03  0.22959830200E+02  0.13410005071E+02  0.10382474495E+03  0.47000000000E+01 0. -1.
        -11    1    6    6    0    0  0.47533143349E+02  0.45878300080E+02  0.14050882520E+02  0.67539954356E+02  0.00000000000E+00 0.  1.
         12    1    6    6    0    0 -0.21831256743E+02  0.97176141023E+02  0.41592518346E+02  0.10793397860E+03  0.00000000000E+00 0. -1.
         -5    1    3    3    0  503 -0.92299128443E+02 -0.12505568033E+03 -0.39203993172E+03  0.42175283089E+03  0.47000000000E+01 0.  1.
         11    1    4    4    0    0 -0.22229462702E+01 -0.38583039597E+02 -0.94787089177E+02  0.10236300459E+03  0.00000000000E+00 0. -1.
        -12    1    4    4    0    0 -0.31432021966E+02 -0.23755513708E+01  0.11741578381E+01  0.31543523834E+02  0.00000000000E+00 0.  1.
</event>
<event>
12    1  0.8297444E-002  0.2488077E+03  0.7818608E-02  0.1114094E+00
         21   -1    0    0  503  502  0.00000000000E+00  0.00000000000E+00  0.58344075085E+03  0.58344075085E+03  0.00000000000E+00 0. -1.
         21   -1    0    0  501  503 -0.00000000000E+00 -0.00000000000E+00 -0.19129872866E+03  0.19129872866E+03  0.00000000000E+00 0. -1.
          6    2    1    2  501    0 -0.91547006895E+02  0.15400408585E+03  0.45476175125E+03  0.51837586511E+03  0.17264754326E+03 0.  0.
         24    2    3    3    0    0 -0.11077265934E+03  0.15406488767E+03  0.34398687932E+03  0.40584679482E+03  0.10187284255E+03 0.  0.
         -6    2    1    2    0  502  0.91547006895E+02 -0.15400408585E+03 -0.62619729059E+02  0.25636361440E+03  0.17234546524E+03 0.  0.
        -24    2    5    5    0    0  0.62317329585E+02 -0.11479798377E+03 -0.10988596394E+03  0.18818972323E+03  0.79236482858E+02 0.  0.
          5    1    3    3  501    0  0.19225652444E+02 -0.60801819627E-01  0.11077487193E+03  0.11252907029E+03  0.47000000000E+01 0. -1.
        -11    1    4    4    0    0 -0.31404962558E+02 -0.48166452216E+01  0.23785558742E+02  0.39689098618E+02  0.00000000000E+00 0.  1.
         12    1    4    4    0    0 -0.79367696781E+02  0.15888153289E+03  0.32020132058E+03  0.36615769620E+03  0.00000000000E+00 0. -1.
         -5    1    5    5    0  502  0.29229677310E+02 -0.39206102085E+02  0.47266234883E+02  0.68173891163E+02  0.47000000000E+01 0.  1.
         11    1    6    6    0    0  0.48605684076E+02 -0.18222583580E+02 -0.20262097152E+02  0.55723672329E+02  0.00000000000E+00 0. -1.
        -12    1    6    6    0    0  0.13711645509E+02 -0.96575400188E+02 -0.89623866790E+02  0.13246605091E+03  0.00000000000E+00 0.  1.
</event>
<event>
12    1  0.8297444E-002  0.1944679E+03  0.7818608E-02  0.1154666E+00
         21   -1    0    0  501  502  0.00000000000E+00  0.00000000000E+00  0.13255270778E+04  0.13255270778E+04  0.00000000000E+00 0. -1.
         21   -1    0    0  502  503 -0.00000000000E+00 -0.00000000000E+00 -0.32173727929E+02  0.32173727929E+02  0.00000000000E+00 0. -1.
         -6    2    1    2    0  503  0.32018505155E+02  0.84860753801E+02  0.41344573432E+03  0.45655975839E+03  0.17112248699E+03 0.  0.
        -24    2    3    3    0    0  0.39193587499E+02  0.49737155678E+02  0.11308500348E+03  0.15403073899E+03  0.83230574829E+02 0.  0.
          6    2    1    2  501    0 -0.32018505155E+02 -0.84860753801E+02  0.87990761553E+03  0.90114104731E+03  0.17202105415E+03 0.  0.
         24    2    5    5    0    0 -0.75264059397E+02 -0.44650889262E+02  0.73656643231E+03  0.74604173727E+03  0.79936124461E+02 0.  0.
          5    1    5    5  501    0  0.43245554242E+02 -0.40209864539E+02  0.14334118322E+03  0.15509931004E+03  0.47000000000E+01 0. -1.
        -11    1    6    6    0    0 -0.37452652500E+02  0.16641091335E+02  0.16771629574E+03  0.17265104389E+03  0.00000000000E+00 0.  1.
         12    1    6    6    0    0 -0.37811406898E+02 -0.61291980597E+02  0.56885013657E+03  0.57339069338E+03  0.00000000000E+00 0. -1.
         -5    1    3    3    0  503 -0.71750823432E+01  0.35123598123E+02  0.30036073084E+03  0.30252901940E+03  0.47000000000E+01 0.  1.
         11    1    4    4    0    0  0.33035469234E+02  0.64815099884E+02  0.11653900222E+03  0.13738150690E+03  0.00000000000E+00 0. -1.
        -12    1    4    4    0    0  0.61581182648E+01 -0.15077944206E+02 -0.34539987352E+01  0.16649232093E+02  0.00000000000E+00 0.  1.
</event>
<event>
12    1  0.8297444E-002  0.3223604E+03  0.7818608E-02  0.1074605E+00
         21   -1    0    0  501  502  0.00000000000E+00  0.00000000000E+00  0.14358430390E+04  0.14358430390E+04  0.00000000000E+00 0.  1.
         21   -1    0    0  502  503 -0.00000000000E+00 -0.00000000000E+00 -0.11233261578E+03  0.11233261578E+03  0.00000000000E+00 0. -1.
         -6    2    1    2    0  503  0.19284149244E+03 -0.19277840180E+03  0.11236500072E+04  0.11688863031E+04  0.17133154258E+03 0.  0.
        -24    2    3    3    0    0  0.14279984802E+03 -0.20096529759E+03  0.78814769229E+03  0.82954122100E+03  0.78632086563E+02 0.  0.
          6    2    1    2  501    0 -0.19284149244E+03  0.19277840180E+03  0.19986041602E+03  0.37928935169E+03  0.17194438928E+03 0.  0.
         24    2    5    5    0    0 -0.94017431688E+02  0.13473824270E+03  0.19130391416E+03  0.26426692441E+03  0.79032577204E+02 0.  0.
          5    1    5    5  501    0 -0.98824060752E+02  0.58040159105E+02  0.85565018598E+01  0.11502242728E+03  0.47000000000E+01 0. -1.
        -11    1    6    6    0    0 -0.44161780165E+01  0.70753710065E+02  0.90757418211E+02  0.11516292405E+03  0.00000000000E+00 0.  1.
         12    1    6    6    0    0 -0.89601253671E+02  0.63984532632E+02  0.10054649595E+03  0.14910400036E+03  0.00000000000E+00 0. -1.
         -5    1    3    3    0  503  0.50041644416E+02  0.81868957860E+01  0.33550231490E+03  0.33934508209E+03  0.47000000000E+01 0.  1.
         13    1    4    4    0    0 -0.53721011898E+01 -0.37902988116E+02  0.10663245433E+03  0.11329596769E+03  0.00000000000E+00 0. -1.
        -14    1    4    4    0    0  0.14817194921E+03 -0.16306230947E+03  0.68151523796E+03  0.71624525331E+03  0.00000000000E+00 0.  1.
</event>
<event>
12    1  0.8297444E-002  0.1771410E+03  0.7818608E-02  0.1171094E+00
         21   -1    0    0  503  502  0.00000000000E+00  0.00000000000E+00  0.10305509057E+03  0.10305509057E+03  0.00000000000E+00 0.  1.
         21   -1    0    0  501  503 -0.00000000000E+00 -0.00000000000E+00 -0.34021567923E+03  0.34021567923E+03  0.00000000000E+00 0.  1.
          6    2    1    2  501    0 -0.24361022683E+02  0.33667418538E+02 -0.19316228665E+03  0.26074743348E+03  0.17014876017E+03 0.  0.
         24    2    3    3    0    0  0.24055380983E+02  0.37269057570E+02 -0.32097533982E+02  0.92458798989E+02  0.74503247019E+02 0.  0.
         -6    2    1    2    0  502  0.24361022683E+02 -0.33667418538E+02 -0.43998302004E+02  0.18252333632E+03  0.17219745418E+03 0.  0.
        -24    2    5    5    0    0 -0.18282115302E+02  0.28597209812E+02 -0.58411962954E+02  0.10554824435E+03  0.81095242285E+02 0.  0.
          5    1    3    3  501    0 -0.48416403666E+02 -0.36016390320E+01 -0.16106475267E+03  0.16828863449E+03  0.47000000000E+01 0. -1.
        -13    1    4    4    0    0  0.24004228407E+02  0.59813574644E+01 -0.50447804885E+02  0.56186836859E+02  0.00000000000E+00 0.  1.
         14    1    4    4    0    0  0.51152575175E-01  0.31287700106E+02  0.18350270903E+02  0.36271962130E+02  0.00000000000E+00 0. -1.
         -5    1    5    5    0  502  0.42643137986E+02 -0.62264628350E+02  0.14413660951E+02  0.76975091964E+02  0.47000000000E+01 0.  1.
         13    1    6    6    0    0 -0.17483971030E+01  0.38371831834E+01 -0.72491562425E+02  0.72614099802E+02  0.00000000000E+00 0. -1.
        -14    1    6    6    0    0 -0.16533718199E+02  0.24760026629E+02  0.14079599471E+02  0.32934144553E+02  0.00000000000E+00 0.  1.
</event>
<event>
12    1  0.8297444E-002  0.2017663E+03  0.7818608E-02  0.1148482E+00
         21   -1    0    0  501  502  0.00000000000E+00  0.00000000000E+00  0.22492688785E+03  0.22492688785E+03  0.00000000000E+00 0.  1.
         21   -1    0    0  502  503 -0.00000000000E+00 -0.00000000000E+00 -0.23228835857E+03  0.23228835857E+03  0.00000000000E+00 0.  1.
         -6    2    1    2    0  503 -0.52390132600E+02  0.88442285845E+02 -0.11210754436E+03  0.22987981356E+03  0.17236549325E+03 0.  0.
        -24    2    3    3    0    0 -0.34971490741E+02 -0.20691380423E+02 -0.56028659813E+02  0.10586167985E+03  0.80102098302E+02 0.  0.
          6    2    1    2  501    0  0.52390132600E+02 -0.88442285845E+02  0.10474607364E+03  0.22733543286E+03  0.17361709354E+03 0.  0.
         24    2    5    5    0    0 -0.53738775980E+00 -0.86351758257E+02  0.12392470203E+03  0.17080577247E+03  0.79751897753E+02 0.  0.
          5    1    5    5  501    0  0.52927520360E+02 -0.20905275880E+01 -0.19178628387E+02  0.56529660390E+02  0.47000000000E+01 0. -1.
        -13    1    6    6    0    0  0.27048266118E+02 -0.44968389766E+02  0.21052340486E+02  0.56541717502E+02  0.00000000000E+00 0.  1.
         14    1    6    6    0    0 -0.27585653878E+02 -0.41383368491E+02  0.10287236154E+03  0.11426405496E+03  0.00000000000E+00 0. -1.
         -5    1    3    3    0  503 -0.17418641859E+02  0.10913366627E+03 -0.56078884545E+02  0.12401813371E+03  0.47000000000E+01 0.  1.
         13    1    4    4    0    0 -0.12182686499E+02 -0.20034441260E+02 -0.73493082841E+02  0.77142918745E+02  0.00000000000E+00 0. -1.
        -14    1    4    4    0    0 -0.22788804242E+02 -0.65693916343E+00  0.17464423029E+02  0.28718761108E+02  0.00000000000E+00 0.  1.
</event>
<event>
12    1  0.8297444E-002  0.1943312E+03  0.7818608E-02  0.1154637E+00
         21   -1    0    0  501  502  0.00000000000E+00  0.00000000000E+00  0.47563350788E+02  0.47563350788E+02  0.00000000000E+00 0. -1.
         21   -1    0    0  502  503 -0.00000000000E+00 -0.00000000000E+00 -0.86555452317E+03  0.86555452317E+03  0.00000000000E+00 0. -1.
         -6    2    1    2    0  503  0.78094955486E+02 -0.46071522527E+02 -0.54060157842E+03  0.57442979607E+03  0.17175015797E+03 0.  0.
        -24    2    3    3    0    0  0.64001335718E+02 -0.86898340038E+02 -0.28063651937E+03  0.31085934805E+03  0.78925191077E+02 0.  0.
          6    2    1    2  501    0 -0.78094955486E+02  0.46071522527E+02 -0.27738959396E+03  0.33868807789E+03  0.17188141262E+03 0.  0.
         24    2    5    5    0    0 -0.10051614864E+03 -0.17752728515E+01 -0.24292875324E+03  0.27542936091E+03  0.82099366445E+02 0.  0.
          5    1    5    5  501    0  0.22421193152E+02  0.47846795379E+02 -0.34460840723E+02  0.63258716978E+02  0.47000000000E+01 0. -1.
        -13    1    6    6    0    0 -0.45529180548E+02 -0.25543407037E+02 -0.45962649356E+02  0.69555280606E+02  0.00000000000E+00 0.  1.
         14    1    6    6    0    0 -0.54986968090E+02  0.23768134185E+02 -0.19696610388E+03  0.20587408030E+03  0.00000000000E+00 0. -1.
         -5    1    3    3    0  503  0.14093619768E+02  0.40826817511E+02 -0.25996505905E+03  0.26357044803E+03  0.47000000000E+01 0.  1.
         11    1    4    4    0    0  0.34998602666E+02 -0.54790825419E+02 -0.24876541847E+03  0.25712092517E+03  0.00000000000E+00 0. -1.
        -12    1    4    4    0    0  0.29002733052E+02 -0.32107514620E+02 -0.31871100907E+02  0.53738422870E+02  0.00000000000E+00 0.  1.
</event>
<event>
12    1  0.8297444E-002  0.2269539E+03  0.7818608E-02  0.1130644E+00
         21   -1    0    0  501  502  0.00000000000E+00  0.00000000000E+00  0.11286760383E+03  0.11286760383E+03  0.00000000000E+00 0. -1.
         21   -1    0    0  502  503 -0.00000000000E+00 -0.00000000000E+00 -0.68211678473E+03  0.68211678473E+03  0.00000000000E+00 0. -1.
         -6    2    1    2    0  503 -0.14509171015E+03  0.29651090388E+02 -0.51904025898E+03  0.56254293153E+03  0.15849595530E+03 0.  0.
        -24    2    3    3    0    0 -0.16059425037E+03  0.17191839323E+02 -0.36285486779E+03  0.40502617650E+03  0.79350337005E+02 0.  0.
          6    2    1    2  501    0  0.14509171015E+03 -0.29651090388E+02 -0.50208921915E+02  0.23244145703E+03  0.17198053259E+03 0.  0.
         24    2    5    5    0    0  0.84316259387E+02 -0.18637506624E+02 -0.98780446069E+02  0.15372527444E+03  0.80108022228E+02 0.  0.
          5    1    5    5  501    0  0.60775450767E+02 -0.11013583763E+02  0.48571524154E+02  0.78716182592E+02  0.47000000000E+01 0. -1.
        -11    1    6    6    0    0  0.27840602695E+02 -0.29846676834E+02 -0.85342605240E+02  0.94600652987E+02  0.00000000000E+00 0.  1.
         12    1    6    6    0    0  0.56475656692E+02  0.11209170210E+02 -0.13437840829E+02  0.59124621451E+02  0.00000000000E+00 0. -1.
         -5    1    3    3    0  503  0.15502540216E+02  0.12459251065E+02 -0.15618539120E+03  0.15751675503E+03  0.47000000000E+01 0.  1.
         11    1    4    4    0    0 -0.99325628578E+02  0.38063303213E+02 -0.28239148794E+03  0.30176041491E+03  0.00000000000E+00 0. -1.
        -12    1    4    4    0    0 -0.61268621791E+02 -0.20871463889E+02 -0.80463379848E+02  0.10326576159E+03  0.00000000000E+00 0.  1.
</event>
<event>
12    1  0.8297444E-002  0.2023631E+03  0.7818608E-02  0.1147891E+00
         21   -1    0    0  501  502  0.00000000000E+00  0.00000000000E+00  0.51900540608E+03  0.51900540608E+03  0.00000000000E+00 0.  1.
         21   -1    0    0  502  503 -0.00000000000E+00 -0.00000000000E+00 -0.12323607292E+03  0.12323607292E+03  0.00000000000E+00 0.  1.
         -6    2    1    2    0  503 -0.37759051517E+02  0.98425078724E+02  0.49472223752E+01  0.20242351577E+03  0.17273552800E+03 0.  0.
        -24    2    3    3    0    0 -0.87281276924E+02  0.79102542449E+02 -0.20852492511E+02  0.14314850834E+03  0.78622105497E+02 0.  0.
          6    2    1    2  501    0  0.37759051517E+02 -0.98425078724E+02  0.39082211079E+03  0.43981796323E+03  0.17200196628E+03 0.  0.
         24    2    5    5    0    0 -0.69357395921E+01 -0.42368219773E+00  0.86862564128E+02  0.11730378667E+03  0.78528907614E+02 0.  0.
          5    1    5    5  501    0  0.44694791109E+02 -0.98001396526E+02  0.30395954666E+03  0.32251417655E+03  0.47000000000E+01 0. -1.
        -13    1    6    6    0    0  0.35995036177E+01 -0.31577103190E+02  0.76474454857E+02  0.82815530655E+02  0.00000000000E+00 0.  1.
         14    1    6    6    0    0 -0.10535243210E+02  0.31153420992E+02  0.10388109271E+02  0.34488256019E+02  0.00000000000E+00 0. -1.
         -5    1    3    3    0  503  0.49522225407E+02  0.19322536275E+02  0.25799714887E+02  0.59275007428E+02  0.47000000000E+01 0.  1.
         13    1    4    4    0    0 -0.39050401372E+02 -0.86193206750E+01  0.34353825449E+01  0.40137618134E+02  0.00000000000E+00 0. -1.
        -14    1    4    4    0    0 -0.48230875552E+02  0.87721863124E+02 -0.24287875056E+02  0.10301089021E+03  0.00000000000E+00 0.  1.
</event>
<event>
12    1  0.8297444E-002  0.1994412E+03  0.7818608E-02  0.1150412E+00
         21   -1    0    0  503  502  0.00000000000E+00  0.00000000000E+00  0.10434033356E+04  0.10434033356E+04  0.00000000000E+00 0. -1.
         21   -1    0    0  501  503 -0.00000000000E+00 -0.00000000000E+00 -0.25680409972E+03  0.25680409972E+03  0.00000000000E+00 0. -1.
          6    2    1    2  501    0 -0.46227475779E+02  0.87157342738E+02 -0.20672264160E+03  0.28724732660E+03  0.17333030371E+03 0.  0.
         24    2    3    3    0    0  0.36829017635E+02  0.10348063310E+02 -0.13748034677E+03  0.15452720041E+03  0.59281961541E+02 0.  0.
         -6    2    1    2    0  502  0.46227475779E+02 -0.87157342738E+02  0.99332187743E+03  0.10129601087E+04  0.17223950672E+03 0.  0.
        -24    2    5    5    0    0  0.86650901563E+02 -0.44188769284E+02  0.82592859180E+03  0.83541306214E+03  0.79346830936E+02 0.  0.
          5    1    3    3  501    0 -0.83056493414E+02  0.76809279428E+02 -0.69242294829E+02  0.13272012620E+03  0.47000000000E+01 0. -1.
        -13    1    4    4    0    0 -0.10699915533E+02 -0.11876204601E+01 -0.71984432719E+02  0.72785006620E+02  0.00000000000E+00 0.  1.
         14    1    4    4    0    0  0.47528933168E+02  0.11535683770E+02 -0.65495914049E+02  0.81742193788E+02  0.00000000000E+00 0. -1.
         -5    1    5    5    0  502 -0.40423425784E+02 -0.42968573454E+02  0.16739328564E+03  0.17754704654E+03  0.47000000000E+01 0.  1.
         13    1    6    6    0    0  0.46785023877E+02 -0.14994408205E+02  0.67098551924E+03  0.67278171629E+03  0.00000000000E+00 0. -1.
        -14    1    6    6    0    0  0.39865877686E+02 -0.29194361079E+02  0.15494307255E+03  0.16263134585E+03  0.00000000000E+00 0.  1.
</event>
<event>
12    1  0.8297444E-002  0.1727720E+03  0.7818608E-02  0.1175280E+00
         21   -1    0    0  501  502  0.00000000000E+00  0.00000000000E+00  0.11467883555E+03  0.11467883555E+03  0.00000000000E+00 0. -1.
         21   -1    0    0  502  503 -0.00000000000E+00 -0.00000000000E+00 -0.28082412650E+03  0.28082412650E+03  0.00000000000E+00 0. -1.
         -6    2    1    2    0  503 -0.41349155343E+01  0.10527913930E+02 -0.13898962990E+03  0.22173924603E+03  0.17240139649E+03 0.  0.
        -24    2    3    3    0    0  0.62274391096E+02 -0.10098319377E+02 -0.10620408207E+03  0.14471574536E+03  0.75387426461E+02 0.  0.
          6    2    1    2  501    0  0.41349155343E+01 -0.10527913930E+02 -0.27155661045E+02  0.17376371603E+03  0.17125555344E+03 0.  0.
         24    2    5    5    0    0 -0.52819133909E+02 -0.43840642709E+02 -0.13727052945E+02  0.10626616672E+03  0.79951256069E+02 0.  0.
          5    1    5    5  501    0  0.56954049443E+02  0.33312728779E+02 -0.13428608100E+02  0.67497549305E+02  0.47000000000E+01 0. -1.
        -11    1    6    6    0    0 -0.35603512146E+02 -0.31977083907E+02 -0.46931516526E+02  0.67027689918E+02  0.00000000000E+00 0.  1.
         12    1    6    6    0    0 -0.17215621763E+02 -0.11863558802E+02  0.33204463581E+02  0.39238476803E+02  0.00000000000E+00 0. -1.
         -5    1    3    3    0  503 -0.66409306630E+02  0.20626233308E+02 -0.32785547838E+02  0.77023500664E+02  0.47000000000E+01 0.  1.
         13    1    4    4    0    0  0.10197073425E+02 -0.31224962706E+02 -0.11902215615E+02  0.34937677928E+02  0.00000000000E+00 0. -1.
        -14    1    4    4    0    0  0.52077317671E+02  0.21126643329E+02 -0.94301866450E+02  0.10977806744E+03  0.00000000000E+00 0.  1.
</event>
<event>
12    1  0.8297444E-002  0.2019741E+03  0.7818608E-02  0.1148115E+00
         21   -1    0    0  501  502  0.00000000000E+00  0.00000000000E+00  0.23581667657E+03  0.23581667657E+03  0.00000000000E+00 0.  1.
         21   -1    0    0  502  503 -0.00000000000E+00 -0.00000000000E+00 -0.24351060031E+03  0.24351060031E+03  0.00000000000E+00 0.  1.
         -6    2    1    2    0  503 -0.79619448951E+01 -0.10543039807E+03 -0.13293806446E+03  0.24179753844E+03  0.17208881198E+03 0.  0.
        -24    2    3    3    0    0  0.21133350099E+02 -0.10414759936E+03 -0.15651797246E+03  0.20403136542E+03  0.76404066851E+02 0.  0.
          6    2    1    2  501    0  0.79619448951E+01  0.10543039807E+03  0.12524414072E+03  0.23752973844E+03  0.17191660902E+03 0.  0.
         24    2    5    5    0    0 -0.36663466791E+02  0.11562476053E+03  0.12507233413E+03  0.19151374219E+03  0.79505532121E+02 0.  0.
          5    1    5    5  501    0  0.44625411686E+02 -0.10194362455E+02  0.17180659124E+00  0.46015996257E+02  0.47000000000E+01 0. -1.
        -13    1    6    6    0    0  0.78784982548E+01  0.16289864139E+02  0.64379519803E+02  0.66874157778E+02  0.00000000000E+00 0.  1.
         14    1    6    6    0    0 -0.44541965046E+02  0.99334896391E+02  0.60692814322E+02  0.12463958441E+03  0.00000000000E+00 0. -1.
         -5    1    3    3    0  503 -0.29095294995E+02 -0.12827987156E+01  0.23579908003E+02  0.37766173023E+02  0.47000000000E+01 0.  1.
         11    1    4    4    0    0 -0.10231181202E+02  0.24616216315E+01  0.17276277789E+01  0.10664021173E+02  0.00000000000E+00 0. -1.
        -12    1    4    4    0    0  0.31364531301E+02 -0.10660922099E+03 -0.15824560024E+03  0.19336734425E+03  0.00000000000E+00 0.  1.
</event>
<event>
12    1  0.8297444E-002  0.1750495E+03  0.7818608E-02  0.1174275E+00
         21   -1    0    0  501  502  0.00000000000E+00  0.00000000000E+00  0.14594401045E+03  0.14594401045E+03  0.00000000000E+00 0.  1.
         21   -1    0    0  502  503 -0.00000000000E+00 -0.00000000000E+00 -0.47280421318E+03  0.47280421318E+03  0.00000000000E+00 0.  1.
         -6    2    1    2    0  503  0.27378289050E+02  0.31622273774E+01 -0.39604234268E+03  0.43052361225E+03  0.16655771708E+03 0.  0.
        -24    2    3    3    0    0  0.15950309504E+02  0.59550630686E+02 -0.32278422859E+03  0.33725468911E+03  0.75831240998E+02 0.  0.
          6    2    1    2  501    0 -0.27378289050E+02 -0.31622273774E+01  0.69182139942E+02  0.18822461138E+03  0.17286632248E+03 0.  0.
         24    2    5    5    0    0 -0.19932746321E+02  0.18470595198E+02 -0.26792074768E+02  0.89449336093E+02  0.80900501817E+02 0.  0.
          5    1    5    5  501    0 -0.74455427289E+01 -0.21632822576E+02  0.95974214710E+02  0.98775275288E+02  0.47000000000E+01 0. -1.
        -11    1    6    6    0    0 -0.30048055048E+02 -0.86686024507E+01  0.18018971222E+02  0.36093124061E+02  0.00000000000E+00 0.  1.
         12    1    6    6    0    0  0.10115308727E+02  0.27139197649E+02 -0.44811045990E+02  0.53356212032E+02  0.00000000000E+00 0. -1.
         -5    1    3    3    0  503  0.11427979545E+02 -0.56388403309E+02 -0.73258114088E+02  0.93268923141E+02  0.47000000000E+01 0.  1.
         13    1    4    4    0    0  0.20697082667E+02  0.19918234217E+02 -0.29167161873E+02  0.40936885775E+02  0.00000000000E+00 0. -1.
        -14    1    4    4    0    0 -0.47467731621E+01  0.39632396469E+02 -0.29361706672E+03  0.29631780333E+03  0.00000000000E+00 0.  1.
</event>
<event>
12    1  0.8297444E-002  0.2293210E+03  0.7818608E-02  0.1129247E+00
         21   -1    0    0  503  502  0.00000000000E+00  0.00000000000E+00  0.11534949923E+03  0.11534949923E+03  0.00000000000E+00 0.  1.
         21   -1    0    0  501  503 -0.00000000000E+00 -0.00000000000E+00 -0.47718514807E+03  0.47718514807E+03  0.00000000000E+00 0.  1.
          6    2    1    2  501    0 -0.99905335675E+02  0.87872801782E+02 -0.26683456070E+03  0.34431433037E+03  0.17218876247E+03 0.  0.
         24    2    3    3    0    0  0.32795531271E+01  0.37585543641E+02 -0.17965260406E+03  0.20009674069E+03  0.79625491700E+02 0.  0.
         -6    2    1    2    0  502  0.99905335675E+02 -0.87872801782E+02 -0.95001088142E+02  0.24822031693E+03  0.18677637324E+03 0.  0.
        -24    2    5    5    0    0  0.13524619958E+03 -0.27387343208E+02 -0.69111591943E+02  0.17338834934E+03  0.79028516865E+02 0.  0.
          5    1    3    3  501    0 -0.10318488880E+03  0.50287258141E+02 -0.87181956641E+02  0.14421758968E+03  0.47000000000E+01 0. -1.
        -11    1    4    4    0    0 -0.27770867297E+02  0.31439300601E+02 -0.43966790660E+02  0.60767831734E+02  0.00000000000E+00 0.  1.
         12    1    4    4    0    0  0.31050420424E+02  0.61462430405E+01 -0.13568581340E+03  0.13932890895E+03  0.00000000000E+00 0. -1.
         -5    1    5    5    0  502 -0.35340863900E+02 -0.60485458574E+02 -0.25889496199E+02  0.74831967591E+02  0.47000000000E+01 0.  1.
         11    1    6    6    0    0  0.42677360914E+02  0.17864204490E+02 -0.50846138816E+02  0.68744576289E+02  0.00000000000E+00 0. -1.
        -12    1    6    6    0    0  0.92568838662E+02 -0.45251547698E+02 -0.18265453126E+02  0.10464377305E+03  0.00000000000E+00 0.  1.
</event>
<event>
12    1  0.8297444E-002  0.2005637E+03  0.7818608E-02  0.1149356E+00
         21   -1    0    0  501  502  0.00000000000E+00  0.00000000000E+00  0.91998368475E+02  0.91998368475E+02  0.00000000000E+00 0.  1.
         21   -1    0    0  502  503 -0.00000000000E+00 -0.00000000000E+00 -0.63242215498E+03  0.63242215498E+03  0.00000000000E+00 0. -1.
         -6    2    1    2    0  503  0.83289572935E+02 -0.58560723783E+02 -0.47171884949E+03  0.51241537584E+03  0.17229141912E+03 0.  0.
        -24    2    3    3    0    0  0.10073177413E+03 -0.65722801213E+02 -0.24473673666E+03  0.28460296336E+03  0.81464099845E+02 0.  0.
          6    2    1    2  501    0 -0.83289572935E+02  0.58560723783E+02 -0.68704937014E+02  0.21200514761E+03  0.17279844593E+03 0.  0.
         24    2    5    5    0    0 -0.11664136673E+02 -0.70302834496E+01 -0.80927931411E+02  0.11400578567E+03  0.79136035497E+02 0.  0.
          5    1    5    5  501    0 -0.71625436261E+02  0.65591007232E+02  0.12222994397E+02  0.97999361944E+02  0.47000000000E+01 0. -1.
        -13    1    6    6    0    0  0.13637686961E+02  0.44525407236E+01  0.10931310465E+02  0.18036218368E+02  0.00000000000E+00 0.  1.
         14    1    6    6    0    0 -0.25301823635E+02 -0.11482824173E+02 -0.91859241876E+02  0.95969567302E+02  0.00000000000E+00 0. -1.
         -5    1    3    3    0  503 -0.17442201193E+02  0.71620774308E+01 -0.22698211283E+03  0.22781241248E+03  0.47000000000E+01 0.  1.
         13    1    4    4    0    0  0.44400948595E+02  0.12263677692E+02 -0.53996931037E+02  0.70975422422E+02  0.00000000000E+00 0. -1.
        -14    1    4    4    0    0  0.56330825532E+02 -0.77986478906E+02 -0.19073980562E+03  0.21362754094E+03  0.00000000000E+00 0.  1.
</event>
<event>
12    1  0.8297444E-002  0.2547853E+03  0.7818608E-02  0.1110320E+00
         21   -1    0    0  503  502  0.00000000000E+00  0.00000000000E+00  0.13270770223E+03  0.13270770223E+03  0.00000000000E+00 0.  1.
         21   -1    0    0  501  503 -0.00000000000E+00 -0.00000000000E+00 -0.58118047238E+03  0.58118047238E+03  0.00000000000E+00 0. -1.
          6    2    1    2  501    0 -0.21871028649E+02 -0.18641559115E+03 -0.36628633196E+03  0.44617536803E+03  0.17227207417E+03 0.  0.
         24    2    3    3    0    0 -0.61744228003E+02 -0.92679961866E+02 -0.12661986079E+03  0.18571741053E+03  0.77823148250E+02 0.  0.
         -6    2    1    2    0  502  0.21871028649E+02  0.18641559115E+03 -0.82186438191E+02  0.26771280657E+03  0.17229748013E+03 0.  0.
        -24    2    5    5    0    0 -0.23398369866E+02  0.75691393482E+02  0.11867887100E+02  0.11547131256E+03  0.83163131983E+02 0.  0.
          5    1    3    3  501    0  0.39873199354E+02 -0.93735629287E+02 -0.23966647117E+03  0.26045795751E+03  0.47000000000E+01 0. -1.
        -11    1    4    4    0    0  0.58846741181E+01 -0.60319042143E+02 -0.50666707691E+02  0.78994502991E+02  0.00000000000E+00 0.  1.
         12    1    4    4    0    0 -0.67628902121E+02 -0.32360919722E+02 -0.75953153095E+02  0.10672290753E+03  0.00000000000E+00 0. -1.
         -5    1    5    5    0  502  0.45269398515E+02  0.11072419767E+03 -0.94054325291E+02  0.15224149401E+03  0.47000000000E+01 0.  1.
         13    1    6    6    0    0  0.98438192937E+01 -0.43409953634E+01 -0.20346660468E+02  0.23015899096E+02  0.00000000000E+00 0. -1.
        -14    1    6    6    0    0 -0.33242189160E+02  0.80032388845E+02  0.32214547567E+02  0.92455413467E+02  0.00000000000E+00 0.  1.
</event>
<event>
12    1  0.8297444E-002  0.2404544E+03  0.7818608E-02  0.1119507E+00
         21   -1    0    0  503  502  0.00000000000E+00  0.00000000000E+00  0.20821412526E+03  0.20821412526E+03  0.00000000000E+00 0. -1.
         21   -1    0    0  501  503 -0.00000000000E+00 -0.00000000000E+00 -0.50652294767E+03  0.50652294767E+03  0.00000000000E+00 0.  1.
          6    2    1    2  501    0  0.16313489611E+03  0.31287714249E+02 -0.38943607908E+03  0.45768852610E+03  0.17385744690E+03 0.  0.
         24    2    3    3    0    0  0.11310266152E+03  0.10973668009E+02 -0.11543863497E+03  0.17838121443E+03  0.74707066503E+02 0.  0.
         -6    2    1    2    0  502 -0.16313489611E+03 -0.31287714249E+02  0.91127256674E+02  0.25704854682E+03  0.17371776858E+03 0.  0.
        -24    2    5    5    0    0 -0.73666946259E+02  0.48296300472E+02  0.30319166312E+02  0.12266907181E+03  0.79806627062E+02 0.  0.
          5    1    3    3  501    0  0.50032234593E+02  0.20314046240E+02 -0.27399744411E+03  0.27930731167E+03  0.47000000000E+01 0. -1.
        -11    1    4    4    0    0 -0.60172643657E+01  0.83800094264E+01 -0.30114511997E+02  0.31832622595E+02  0.00000000000E+00 0.  1.
         12    1    4    4    0    0  0.11911992589E+03  0.25936585822E+01 -0.85324122971E+02  0.14654859184E+03  0.00000000000E+00 0. -1.
         -5    1    5    5    0  502 -0.89467949855E+02 -0.79584014721E+02  0.60808090362E+02  0.13437947501E+03  0.47000000000E+01 0.  1.
         11    1    6    6    0    0 -0.81412040825E+02  0.13465811382E+02  0.15150566667E+02  0.83897485885E+02  0.00000000000E+00 0. -1.
        -12    1    6    6    0    0  0.77450945661E+01  0.34830489090E+02  0.15168599645E+02  0.38771585927E+02  0.00000000000E+00 0.  1.
</event>
<event>
12    1  0.8297444E-002  0.1852755E+03  0.7818608E-02  0.1163540E+00
         21   -1    0    0  501  502  0.00000000000E+00  0.00000000000E+00  0.11238410116E+03  0.11238410116E+03  0.00000000000E+00 0. -1.
         21   -1    0    0  502  503 -0.00000000000E+00 -0.00000000000E+00 -0.33380765247E+03  0.33380765247E+03  0.00000000000E+00 0.  1.
         -6    2    1    2    0  503  0.59758500094E+02  0.20099509619E+02 -0.18232808438E+03  0.25994336603E+03  0.17421812354E+03 0.  0.
        -24    2    3    3    0    0 -0.27522244685E+02  0.41082596362E+02 -0.11042359830E+03  0.14483227422E+03  0.79610067952E+02 0.  0.
          6    2    1    2  501    0 -0.59758500094E+02 -0.20099509619E+02 -0.39095466920E+02  0.18624838760E+03  0.17083599658E+03 0.  0.
         24    2    5    5    0    0  0.22309115399E+02 -0.58366094407E+01  0.16297156131E+02  0.86103709642E+02  0.81341802762E+02 0.  0.
          5    1    5    5  501    0 -0.82067615493E+02 -0.14262900178E+02 -0.55392623051E+02  0.10014467795E+03  0.47000000000E+01 0. -1.
        -13    1    6    6    0    0  0.44949753171E+02 -0.27857887513E+02  0.83736777439E+01  0.53541205494E+02  0.00000000000E+00 0.  1.
         14    1    6    6    0    0 -0.22640637772E+02  0.22021278072E+02  0.79234783868E+01  0.32562504148E+02  0.00000000000E+00 0. -1.
         -5    1    3    3    0  503  0.87280744779E+02 -0.20983086743E+02 -0.71904486088E+02  0.11511109181E+03  0.47000000000E+01 0.  1.
         13    1    4    4    0    0  0.26337035586E+01 -0.16941980567E+02 -0.77306525376E+00  0.17162888155E+02  0.00000000000E+00 0. -1.
        -14    1    4    4    0    0 -0.30155948243E+02  0.58024576928E+02 -0.10965053304E+03  0.12766938607E+03  0.00000000000E+00 0.  1.
</event>
<event>
12    1  0.8297444E-002  0.2587291E+03  0.7818608E-02  0.1108043E+00
         21   -1    0    0  503  502  0.00000000000E+00  0.00000000000E+00  0.76093465184E+02  0.76093465184E+02  0.00000000000E+00 0. -1.
         21   -1    0    0  501  503 -0.00000000000E+00 -0.00000000000E+00 -0.11352439289E+04  0.11352439289E+04  0.00000000000E+00 0. -1.
          6    2    1    2  501    0  0.17884774180E+03 -0.70786903319E+02 -0.81790907116E+03  0.85758870746E+03  0.17171442002E+03 0.  0.
         24    2    3    3    0    0  0.20216077405E+03 -0.72795687726E+02 -0.77493096945E+03  0.80842835845E+03  0.82886745731E+02 0.  0.
         -6    2    1    2    0  502 -0.17884774180E+03  0.70786903319E+02 -0.24124139251E+03  0.35374868658E+03  0.17304168102E+03 0.  0.
        -24    2    5    5    0    0 -0.11592494163E+03  0.11499827969E+03 -0.16040271097E+03  0.24207547128E+03  0.78792814950E+02 0.  0.
          5    1    3    3  501    0 -0.23313032256E+02  0.20087844067E+01 -0.42978101710E+02  0.49160349005E+02  0.47000000000E+01 0. -1.
        -13    1    4    4    0    0  0.44957564339E+02 -0.54439746177E+02 -0.28241212510E+03  0.29110389375E+03  0.00000000000E+00 0.  1.
         14    1    4    4    0    0  0.15720320971E+03 -0.18355941548E+02 -0.49251884436E+03  0.51732446470E+03  0.00000000000E+00 0. -1.
         -5    1    5    5    0  502 -0.62922800172E+02 -0.44211376370E+02 -0.80838681543E+02  0.11167321530E+03  0.47000000000E+01 0.  1.
         13    1    6    6    0    0 -0.98175779760E+02  0.49535834329E+02 -0.75414882935E+02  0.13334049341E+03  0.00000000000E+00 0. -1.
        -14    1    6    6    0    0 -0.17749161866E+02  0.65462445359E+02 -0.84987828031E+02  0.10873497787E+03  0.00000000000E+00 0.  1.
</event>
<event>
12    1  0.8297444E-002  0.1947643E+03  0.7818608E-02  0.1156171E+00
         21   -1    0    0  503  502  0.00000000000E+00  0.00000000000E+00  0.13867585326E+03  0.13867585326E+03  0.00000000000E+00 0.  1.
         21   -1    0    0  501  503 -0.00000000000E+00 -0.00000000000E+00 -0.12107789356E+04  0.12107789356E+04  0.00000000000E+00 0.  1.
          6    2    1    2  501    0  0.86419355414E+02 -0.27858383245E+02 -0.11308205347E+04  0.11460319055E+04  0.16244892168E+03 0.  0.
         24    2    3    3    0    0  0.91552793531E+02 -0.20909644636E+02 -0.11293619477E+04  0.11360893388E+04  0.80133948128E+02 0.  0.
         -6    2    1    2    0  502 -0.86419355414E+02  0.27858383245E+02  0.58717452307E+02  0.20342288344E+03  0.17230419552E+03 0.  0.
        -24    2    5    5    0    0  0.17934119245E+02  0.34097321965E+02  0.33782727071E+02  0.95847781519E+02  0.81001633165E+02 0.  0.
          5    1    3    3  501    0 -0.51334381177E+01 -0.69487386087E+01 -0.14585869821E+01  0.99425666276E+01  0.47000000000E+01 0. -1.
        -13    1    4    4    0    0  0.80643871281E+02 -0.41050049813E+02 -0.66070900417E+03  0.66687699672E+03  0.00000000000E+00 0.  1.
         14    1    4    4    0    0  0.10908922251E+02  0.20140405177E+02 -0.46865294354E+03  0.46921234211E+03  0.00000000000E+00 0. -1.
         -5    1    5    5    0  502 -0.10435347466E+03 -0.62389387199E+01  0.24934725236E+02  0.10757510192E+03  0.47000000000E+01 0.  1.
         11    1    6    6    0    0 -0.27027556099E+02  0.27154942131E+02 -0.13965886035E+01  0.38338363691E+02  0.00000000000E+00 0. -1.
        -12    1    6    6    0    0  0.44961675344E+02  0.69423798337E+01  0.35179315675E+02  0.57509417827E+02  0.00000000000E+00 0.  1.
</event>
<event>
12    1  0.8297444E-002  0.1788487E+03  0.7818608E-02  0.1168926E+00
         21   -1    0    0  503  502  0.00000000000E+00  0.00000000000E+00  0.23681757946E+03  0.23681757946E+03  0.00000000000E+00 0.  1.
         21   -1    0    0  501  503 -0.00000000000E+00 -0.00000000000E+00 -0.16734627653E+03  0.16734627653E+03  0.00000000000E+00 0.  1.
          6    2    1    2  501    0 -0.90203418884E+01  0.49059656301E+02 -0.54029755415E+02  0.18683165471E+03  0.17175167041E+03 0.  0.
         24    2    3    3    0    0 -0.19102554287E+02  0.84120903324E+02  0.48207411099E+01  0.11743127294E+03  0.79533831560E+02 0.  0.
         -6    2    1    2    0  502  0.90203418884E+01 -0.49059656301E+02  0.12350105834E+03  0.21733220128E+03  0.17173397409E+03 0.  0.
        -24    2    5    5    0    0  0.63110026330E+02 -0.67139592533E+02  0.90900250634E+02  0.15147264829E+03  0.78679776978E+02 0.  0.
          5    1    3    3  501    0  0.10082212399E+02 -0.35061247023E+02 -0.58850496525E+02  0.69400381777E+02  0.47000000000E+01 0. -1.
        -13    1    4    4    0    0 -0.36760122402E+02  0.63574279888E+02 -0.24589882024E+02  0.77444547647E+02  0.00000000000E+00 0.  1.
         14    1    4    4    0    0  0.17657568115E+02  0.20546623436E+02  0.29410623134E+02  0.39986725291E+02  0.00000000000E+00 0. -1.
         -5    1    5    5    0  502 -0.54089684442E+02  0.18079936232E+02  0.32600807710E+02  0.65859552994E+02  0.47000000000E+01 0.  1.
         13    1    6    6    0    0  0.25490456801E+02 -0.19892359268E+02 -0.10029182569E+02  0.33853417083E+02  0.00000000000E+00 0. -1.
        -14    1    6    6    0    0  0.37619569529E+02 -0.47247233264E+02  0.10092943320E+03  0.11761923121E+03  0.00000000000E+00 0.  1.
</event>
<event>
12    1  0.8297444E-002  0.3205762E+03  0.7818608E-02  0.1075393E+00
         21   -1    0    0  501  502  0.00000000000E+00  0.00000000000E+00  0.17625075100E+03  0.17625075100E+03  0.00000000000E+00 0. -1.
         21   -1    0    0  502  503 -0.00000000000E+00 -0.00000000000E+00 -0.60673075883E+03  0.60673075883E+03  0.00000000000E+00 0. -1.
         -6    2    1    2    0  503  0.17758582259E+03  0.20392926256E+03 -0.29273466626E+03  0.43406483305E+03  0.17203146789E+03 0.  0.
        -24    2    3    3    0    0  0.18601389812E+03  0.12942454094E+03 -0.22406032919E+03  0.33227956608E+03  0.94099929993E+02 0.  0.
          6    2    1    2  501    0 -0.17758582259E+03 -0.20392926256E+03 -0.13774534157E+03  0.34891667679E+03  0.17217781421E+03 0.  0.
         24    2    5    5    0    0 -0.15835463851E+03 -0.98097922127E+02 -0.12927369547E+03  0.24091681639E+03  0.81423769375E+02 0.  0.
          5    1    5    5  501    0 -0.19231184082E+02 -0.10583134043E+03 -0.84716461040E+01  0.10799986040E+03  0.47000000000E+01 0. -1.
        -13    1    6    6    0    0  0.82579355052E+01  0.13048483084E+01 -0.12046585883E+01  0.84467348858E+01  0.00000000000E+00 0.  1.
         14    1    6    6    0    0 -0.16661257401E+03 -0.99402770435E+02 -0.12806903688E+03  0.23247008151E+03  0.00000000000E+00 0. -1.
         -5    1    3    3    0  503 -0.84280755287E+01  0.74504721613E+02 -0.68674337066E+02  0.10178526697E+03  0.47000000000E+01 0.  1.
         13    1    4    4    0    0  0.13239452934E+03  0.81341117482E+02 -0.20599299597E+03  0.25802674896E+03  0.00000000000E+00 0. -1.
        -14    1    4    4    0    0  0.53619368777E+02  0.48083423461E+02 -0.18067333224E+02  0.74252817116E+02  0.00000000000E+00 0.  1.
</event>
<event>
12    1  0.8297444E-002  0.2589510E+03  0.7818608E-02  0.1107868E+00
         21   -1    0    0  503  502  0.00000000000E+00  0.00000000000E+00  0.55531853797E+02  0.55531853797E+02  0.00000000000E+00 0. -1.
         21   -1    0    0  501  503 -0.00000000000E+00 -0.00000000000E+00 -0.12471556673E+04  0.12471556673E+04  0.00000000000E+00 0.  1.
          6    2    1    2  501    0 -0.15117164403E+03  0.12097400395E+03 -0.71673596401E+03  0.76208007925E+03  0.17195356787E+03 0.  0.
         24    2    3    3    0    0 -0.17768340450E+03  0.11704627816E+03 -0.67555157573E+03  0.71271871469E+03  0.79541255542E+02 0.  0.
         -6    2    1    2    0  502  0.15117164403E+03 -0.12097400395E+03 -0.47488784954E+03  0.54060744189E+03  0.17102736913E+03 0.  0.
        -24    2    5    5    0    0  0.88953390964E+02 -0.45117929846E+01 -0.28667512520E+03  0.31064945180E+03  0.79921164031E+02 0.  0.
          5    1    3    3  501    0  0.26511760479E+02  0.39277257917E+01 -0.41184388277E+02  0.49361364561E+02  0.47000000000E+01 0. -1.
        -11    1    4    4    0    0 -0.15364890462E+02  0.41246491644E+02 -0.19383267124E+03  0.19876734483E+03  0.00000000000E+00 0.  1.
         12    1    4    4    0    0 -0.16231851404E+03  0.75799786518E+02 -0.48171890449E+03  0.51395136986E+03  0.00000000000E+00 0. -1.
         -5    1    5    5    0  502  0.62218253062E+02 -0.11646221097E+03 -0.18821272434E+03  0.22995799008E+03  0.47000000000E+01 0.  1.
         11    1    6    6    0    0  0.64104529044E+02  0.30523777802E+02 -0.12922457699E+03  0.14744518627E+03  0.00000000000E+00 0. -1.
        -12    1    6    6    0    0  0.24848861920E+02 -0.35035570786E+02 -0.15745054820E+03  0.16320426554E+03  0.00000000000E+00 0.  1.
</event>
<event>
12    1  0.8297444E-002  0.1899918E+03  0.7818608E-02  0.1158573E+00
         21   -1    0    0  501  502  0.00000000000E+00  0.00000000000E+00  0.21743274794E+02  0.21743274794E+02  0.00000000000E+00 0.  1.
         21   -1    0    0  502  503 -0.00000000000E+00 -0.00000000000E+00 -0.16933770936E+04  0.16933770936E+04  0.00000000000E+00 0. -1.
         -6    2    1    2    0  503  0.68252456196E+01 -0.77882546698E+02 -0.96402426836E+03  0.98256789312E+03  0.17316061776E+03 0.  0.
        -24    2    3    3    0    0 -0.12071153162E+02 -0.30137571816E+02 -0.87775033886E+03  0.88205949832E+03  0.80804178337E+02 0.  0.
          6    2    1    2  501    0 -0.68252456196E+01  0.77882546698E+02 -0.70760955048E+03  0.73255247530E+03  0.17265450499E+03 0.  0.
         24    2    5    5    0    0  0.32358340763E+02  0.61625911483E+02 -0.22761629861E+03  0.25066530649E+03  0.78607259857E+02 0.  0.
          5    1    5    5  501    0 -0.39183586383E+02  0.16256635215E+02 -0.47999325187E+03  0.48188716881E+03  0.47000000000E+01 0. -1.
        -11    1    6    6    0    0  0.51030995983E+02  0.28783689398E+02 -0.85746829793E+02  0.10385173155E+03  0.00000000000E+00 0.  1.
         12    1    6    6    0    0 -0.18672655220E+02  0.32842222085E+02 -0.14186946882E+03  0.14681357494E+03  0.00000000000E+00 0. -1.
         -5    1    3    3    0  503  0.18896398781E+02 -0.47744974882E+02 -0.86273929499E+02  0.10050839480E+03  0.47000000000E+01 0.  1.
         13    1    4    4    0    0  0.22548535776E+02  0.40842110686E+01 -0.92298231114E+02  0.95100371778E+02  0.00000000000E+00 0. -1.
        -14    1    4    4    0    0 -0.34619688938E+02 -0.34221782885E+02 -0.78545210775E+03  0.78695912655E+03  0.00000000000E+00 0.  1.
</event>
<event>
12    1  0.8297444E-002  0.1782107E+03  0.7818608E-02  0.1170109E+00
         21   -1    0    0  503  502  0.00000000000E+00  0.00000000000E+00  0.33288532695E+03  0.33288532695E+03  0.00000000000E+00 0.  1.
         21   -1    0    0  501  503 -0.00000000000E+00 -0.00000000000E+00 -0.10276555843E+03  0.10276555843E+03  0.00000000000E+00 0.  1.
          6    2    1    2  501    0  0.60196114994E+01 -0.38396416707E+02  0.51448454029E+02  0.18329700800E+03  0.17158184398E+03 0.  0.
         24    2    3    3    0    0  0.37217042410E+02  0.30928628885E+02  0.52181869587E+02  0.10712700380E+03  0.80072211780E+02 0.  0.
         -6    2    1    2    0  502 -0.60196114994E+01  0.38396416707E+02  0.17867131449E+03  0.25235387739E+03  0.17392101734E+03 0.  0.
        -24    2    5    5    0    0  0.62797075191E+01  0.43241193194E+02  0.34893854437E+02  0.10789352599E+03  0.92272403007E+02 0.  0.
          5    1    3    3  501    0 -0.31197430910E+02 -0.69325045591E+02 -0.73341555820E+00  0.76170004201E+02  0.47000000000E+01 0. -1.
        -13    1    4    4    0    0 -0.73269570307E+01  0.24905845834E+02 -0.12136974049E+02  0.28658185481E+02  0.00000000000E+00 0.  1.
         14    1    4    4    0    0  0.44543999440E+02  0.60227830509E+01  0.64318843636E+02  0.78468818320E+02  0.00000000000E+00 0. -1.
         -5    1    5    5    0  502 -0.12299319018E+02 -0.48447764868E+01  0.14377746005E+03  0.14446035140E+03  0.47000000000E+01 0.  1.
         13    1    6    6    0    0 -0.36136218807E+02 -0.61924098488E+01  0.86561595180E+01  0.37670961588E+02  0.00000000000E+00 0. -1.
        -14    1    6    6    0    0  0.42415926326E+02  0.49433603043E+02  0.26237694919E+02  0.70222564397E+02  0.00000000000E+00 0.  1.
</event>
<event>
12    1  0.8297444E-002  0.1897056E+03  0.7818608E-02  0.1159236E+00
         21   -1    0    0  501  502  0.00000000000E+00  0.00000000000E+00  0.51187420662E+02  0.51187420662E+02  0.00000000000E+00 0. -1.
         21   -1    0    0  502  503 -0.00000000000E+00 -0.00000000000E+00 -0.10661512526E+04  0.10661512526E+04  0.00000000000E+00 0.  1.
         -6    2    1    2    0  503 -0.64831389923E+02 -0.40016790139E+02 -0.83915992956E+03  0.86033575530E+03  0.17373477447E+03 0.  0.
        -24    2    3    3    0    0 -0.77956492787E+02 -0.84071102882E+02 -0.55207457866E+03  0.56955552988E+03  0.80386541810E+02 0.  0.
          6    2    1    2  501    0  0.64831389923E+02  0.40016790139E+02 -0.17580390233E+03  0.25700291792E+03  0.17128641256E+03 0.  0.
         24    2    5    5    0    0  0.99613803222E+02  0.46301145685E+01 -0.15966791385E+03  0.20461500703E+03  0.80181735045E+02 0.  0.
          5    1    5    5  501    0 -0.34782413299E+02  0.35386675570E+02 -0.16135988485E+02  0.52387910888E+02  0.47000000000E+01 0. -1.
        -13    1    6    6    0    0  0.36625528519E+01  0.12767134968E+02 -0.75685683644E+02  0.76842284827E+02  0.00000000000E+00 0.  1.
         14    1    6    6    0    0  0.95951250370E+02 -0.81370203996E+01 -0.83982230206E+02  0.12777272220E+03  0.00000000000E+00 0. -1.
         -5    1    3    3    0  503  0.13125102864E+02  0.44054312743E+02 -0.28708535089E+03  0.29078022542E+03  0.47000000000E+01 0.  1.
         13    1    4    4    0    0 -0.69643256113E+02 -0.25065496687E+02 -0.21838491326E+03  0.23058714748E+03  0.00000000000E+00 0. -1.
        -14    1    4    4    0    0 -0.83132366747E+01 -0.59005606195E+02 -0.33368966541E+03  0.33896838240E+03  0.00000000000E+00 0.  1.
</event>
<event>
12    1  0.8297444E-002  0.1954840E+03  0.7818608E-02  0.1153684E+00
         21   -1    0    0  503  502  0.00000000000E+00  0.00000000000E+00  0.25270505180E+03  0.25270505180E+03  0.00000000000E+00 0. -1.
         21   -1    0    0  501  503 -0.00000000000E+00 -0.00000000000E+00 -0.15645940900E+03  0.15645940900E+03  0.00000000000E+00 0. -1.
          6    2    1    2  501    0  0.84159933482E+02  0.36542448811E+02  0.96620378468E+01  0.19536379468E+03  0.17220746885E+03 0.  0.
         24    2    3    3    0    0  0.10092630326E+02  0.49325835308E+02  0.50213887042E+02  0.10983062661E+03  0.83704437601E+02 0.  0.
         -6    2    1    2    0  502 -0.84159933482E+02 -0.36542448811E+02  0.86583604952E+02  0.21380066611E+03  0.17261448147E+03 0.  0.
        -24    2    5    5    0    0 -0.74534327044E+02 -0.34624367512E+01 -0.97973747178E+01  0.11133934297E+03  0.82055507837E+02 0.  0.
          5    1    3    3  501    0  0.74067303156E+02 -0.12783386497E+02 -0.40551849195E+02  0.85533168071E+02  0.47000000000E+01 0. -1.
        -13    1    4    4    0    0 -0.23206037427E+02  0.49855899418E+02  0.53046859244E+02  0.76407461386E+02  0.00000000000E+00 0.  1.
         14    1    4    4    0    0  0.33298667753E+02 -0.53006410957E+00 -0.28329722022E+01  0.33423165224E+02  0.00000000000E+00 0. -1.
         -5    1    5    5    0  502 -0.96256064385E+01 -0.33080012060E+02  0.96380979670E+02  0.10246132314E+03  0.47000000000E+01 0.  1.
         13    1    6    6    0    0 -0.40734253956E+02 -0.14744936465E+02 -0.44142524426E+02  0.61848646383E+02  0.00000000000E+00 0. -1.
        -14    1    6    6    0    0 -0.33800073088E+02  0.11282499713E+02  0.34345149708E+02  0.49490696591E+02  0.00000000000E+00 0.  1.
</event>
<event>
12    1  0.8297444E-002  0.1955228E+03  0.7818608E-02  0.1155627E+00
         21   -1    0    0  501  502  0.00000000000E+00  0.00000000000E+00  0.19079030771E+04  0.19079030771E+04  0.00000000000E+00 0. -1.
         21   -1    0    0  502  503 -0.00000000000E+00 -0.00000000000E+00 -0.59183059117E+02  0.59183059117E+02  0.00000000000E+00 0.  1.
         -6    2    1    2    0  503  0.65675946900E+02  0.28346557918E+02  0.12225548997E+03  0.23059831877E+03  0.18196791597E+03 0.  0.
        -24    2    3    3    0    0 -0.19718523855E+02 -0.80118152917E+01  0.10806580358E+03  0.13658989288E+03  0.80781009934E+02 0.  0.
          6    2    1    2  501    0 -0.65675946900E+02 -0.28346557918E+02  0.17264645280E+04  0.17364878174E+04  0.17202708015E+03 0.  0.
         24    2    5    5    0    0 -0.53175521944E+02  0.37321559751E+02  0.60093009063E+03  0.60896024704E+03  0.74128764247E+02 0.  0.
          5    1    5    5  501    0 -0.12500424956E+02 -0.65668117669E+02  0.11255344374E+04  0.11275275704E+04  0.47000000000E+01 0. -1.
        -13    1    6    6    0    0 -0.56389481272E+02  0.13454510259E+02  0.22804744672E+03  0.23530073395E+03  0.00000000000E+00 0.  1.
         14    1    6    6    0    0  0.32139593274E+01  0.23867049492E+02  0.37288264392E+03  0.37365951309E+03  0.00000000000E+00 0. -1.
         -5    1    3    3    0  503  0.85394470755E+02  0.36358373210E+02  0.14189686385E+02  0.94008425887E+02  0.47000000000E+01 0.  1.
         11    1    4    4    0    0  0.10917908681E+02 -0.29190929413E+02  0.89905006062E+02  0.95153671526E+02  0.00000000000E+00 0. -1.
        -12    1    4    4    0    0 -0.30636432536E+02  0.21179114122E+02  0.18160797519E+02  0.41436221353E+02  0.00000000000E+00 0.  1.
</event>
<event>
12    1  0.8297444E-002  0.3225300E+03  0.7818608E-02  0.1074512E+00
         21   -1    0    0  501  502  0.00000000000E+00  0.00000000000E+00  0.35208560062E+03  0.35208560062E+03  0.00000000000E+00 0. -1.
         21   -1    0    0  502  503 -0.00000000000E+00 -0.00000000000E+00 -0.31023417629E+03  0.31023417629E+03  0.00000000000E+00 0.  1.
         -6    2    1    2    0  503 -0.35094833356E+02  0.27058022253E+03  0.93620092714E+02  0.33584271221E+03  0.17198924800E+03 0.  0.
        -24    2    3    3    0    0  0.15671456654E+02  0.24684094617E+03  0.96544395706E+02  0.27952743016E+03  0.87399751772E+02 0.  0.
          6    2    1    2  501    0  0.35094833356E+02 -0.27058022253E+03 -0.51768668384E+02  0.32647706471E+03  0.17164490845E+03 0.  0.
         24    2    5    5    0    0 -0.18577624058E+02 -0.23017376122E+03 -0.77350685255E+02  0.25443579606E+03  0.73684172911E+02 0.  0.
          5    1    5    5  501    0  0.53672457414E+02 -0.40406461313E+02  0.25582016871E+02  0.72041268645E+02  0.47000000000E+01 0. -1.
        -13    1    6    6    0    0 -0.11944091832E+02 -0.35934247003E+02 -0.42606025598E+02  0.57001796942E+02  0.00000000000E+00 0.  1.
         14    1    6    6    0    0 -0.66335322260E+01 -0.19423951422E+03 -0.34744659657E+02  0.19743399912E+03  0.00000000000E+00 0. -1.
         -5    1    3    3    0  503 -0.50766290011E+02  0.23739276360E+02 -0.29243029925E+01  0.56315282043E+02  0.47000000000E+01 0.  1.
         13    1    4    4    0    0 -0.17255049003E+01  0.15775468645E+03  0.10319163063E+03  0.18851533385E+03  0.00000000000E+00 0. -1.
        -14    1    4    4    0    0  0.17396961555E+02  0.89086259726E+02 -0.66472349275E+01  0.91012096314E+02  0.00000000000E+00 0.  1.
</event>
<event>
12    1  0.8297444E-002  0.2369506E+03  0.7818608E-02  0.1122101E+00
         21   -1    0    0  501  502  0.00000000000E+00  0.00000000000E+00  0.74426990926E+02  0.74426990926E+02  0.00000000000E+00 0.  1.
         21   -1    0    0  502  503 -0.00000000000E+00 -0.00000000000E+00 -0.84549208248E+03  0.84549208248E+03  0.00000000000E+00 0.  1.
         -6    2    1    2    0  503  0.16278347167E+03  0.98790737374E+01 -0.54162031991E+03  0.59118367871E+03  0.17189972741E+03 0.  0.
        -24    2    3    3    0    0  0.17270121174E+03 -0.20600220597E+02 -0.50553480162E+03  0.54269034327E+03  0.93259291278E+02 0.  0.
          6    2    1    2  501    0 -0.16278347167E+03 -0.98790737374E+01 -0.22944477164E+03  0.32873539470E+03  0.16978221858E+03 0.  0.
         24    2    5    5    0    0 -0.16222843033E+03  0.40263787696E+02 -0.17566795702E+03  0.25505601892E+03  0.79089224662E+02 0.  0.
          5    1    5    5  501    0 -0.55504134302E+00 -0.50142861433E+02 -0.53776814629E+02  0.73679375779E+02  0.47000000000E+01 0. -1.
        -11    1    6    6    0    0 -0.69061825132E+02 -0.16074607218E+02 -0.41096803331E+02  0.81956549047E+02  0.00000000000E+00 0.  1.
         12    1    6    6    0    0 -0.93166605197E+02  0.56338394914E+02 -0.13457115368E+03  0.17309946987E+03  0.00000000000E+00 0. -1.
         -5    1    3    3    0  503 -0.99177400686E+01  0.30479294335E+02 -0.36085518288E+02  0.48493335432E+02  0.47000000000E+01 0.  1.
         11    1    4    4    0    0  0.97825116809E+02 -0.32666762041E+02 -0.17123782610E+03  0.19989813383E+03  0.00000000000E+00 0. -1.
        -12    1    4    4    0    0  0.74876094931E+02  0.12066541444E+02 -0.33429697552E+03  0.34279220945E+03  0.00000000000E+00 0.  1.
</event>
<event>
12    1  0.8297444E-002  0.2023893E+03  0.7818608E-02  0.1147749E+00
         21   -1    0    0  503  502  0.00000000000E+00  0.00000000000E+00  0.88843581164E+03  0.88843581164E+03  0.00000000000E+00 0. -1.
         21   -1    0    0  501  503 -0.00000000000E+00 -0.00000000000E+00 -0.46096034193E+02  0.46096034193E+02  0.00000000000E+00 0. -1.
          6    2    1    2  501    0 -0.77202482658E+02 -0.71887720370E+02  0.41825553042E+03  0.46464945101E+03  0.17272335085E+03 0.  0.
         24    2    3    3    0    0 -0.13196681263E+02 -0.99781865474E+02  0.22683293454E+03  0.26083697309E+03  0.80325421032E+02 0.  0.
         -6    2    1    2    0  502  0.77202482658E+02  0.71887720370E+02  0.42408424703E+03  0.46988239482E+03  0.17266716167E+03 0.  0.
        -24    2    5    5    0    0  0.44761474498E+02  0.72120171295E+02  0.12949567628E+03  0.17347559824E+03  0.78228794592E+02 0.  0.
          5    1    3    3  501    0 -0.64005801395E+02  0.27894145104E+02  0.19142259588E+03  0.20381247792E+03  0.47000000000E+01 0. -1.
        -13    1    4    4    0    0  0.29999765746E+02 -0.19193716934E+02  0.84081000829E+02  0.91312646523E+02  0.00000000000E+00 0.  1.
         14    1    4    4    0    0 -0.43196447009E+02 -0.80588148540E+02  0.14275193371E+03  0.16952432656E+03  0.00000000000E+00 0. -1.
         -5    1    5    5    0  502  0.32441008160E+02 -0.23245092480E+00  0.29458857075E+03  0.29640679658E+03  0.47000000000E+01 0.  1.
         13    1    6    6    0    0  0.64467468624E+02  0.45093423247E+02  0.10836478698E+03  0.13391190532E+03  0.00000000000E+00 0. -1.
        -14    1    6    6    0    0 -0.19705994126E+02  0.27026748048E+02  0.21130889303E+02  0.39563692918E+02  0.00000000000E+00 0.  1.
</event>
<event>
12    1  0.8297444E-002  0.1748815E+03  0.7818608E-02  0.1173137E+00
         21   -1    0    0  503  502  0.00000000000E+00  0.00000000000E+00  0.10209005999E+04  0.10209005999E+04  0.00000000000E+00 0.  1.
         21   -1    0    0  501  503 -0.00000000000E+00 -0.00000000000E+00 -0.49092690316E+02  0.49092690316E+02  0.00000000000E+00 0.  1.
          6    2    1    2  501    0  0.23934818503E+01 -0.24659109698E+02  0.14924607060E+03  0.22904649300E+03  0.17197123573E+03 0.  0.
         24    2    3    3    0    0  0.62925958765E+02 -0.30724378559E+02  0.12353425012E+03  0.16283353384E+03  0.79689303335E+02 0.  0.
         -6    2    1    2    0  502 -0.23934818503E+01  0.24659109698E+02  0.82256183899E+03  0.84094679723E+03  0.17311769511E+03 0.  0.
        -24    2    5    5    0    0  0.31815783027E+02  0.17135785914E+02  0.20948079555E+03  0.22684800222E+03  0.79195537744E+02 0.  0.
          5    1    3    3  501    0 -0.60532476915E+02  0.60652688616E+01  0.25711820484E+02  0.66212959157E+02  0.47000000000E+01 0. -1.
        -13    1    4    4    0    0 -0.22906525524E+01  0.18063675285E+02  0.47658995037E+01  0.18821722875E+02  0.00000000000E+00 0.  1.
         14    1    4    4    0    0  0.65216611318E+02 -0.48788053844E+02  0.11876835062E+03  0.14401181097E+03  0.00000000000E+00 0. -1.
         -5    1    5    5    0  502 -0.34209264877E+02  0.75233237840E+01  0.61308104345E+03  0.61409879502E+03  0.47000000000E+01 0.  1.
         11    1    6    6    0    0  0.24519417691E+02 -0.21534653834E+02  0.34468933807E+02  0.47466309710E+02  0.00000000000E+00 0. -1.
        -12    1    6    6    0    0  0.72963653365E+01  0.38670439748E+02  0.17501186174E+03  0.17938169251E+03  0.00000000000E+00 0.  1.
</event>
<event>
12    1  0.8297444E-002  0.2115767E+03  0.7818608E-02  0.1140957E+00
         21   -1    0    0  501  502  0.00000000000E+00  0.00000000000E+00  0.58719847685E+02  0.58719847685E+02  0.00000000000E+00 0. -1.
         21   -1    0    0  502  503 -0.00000000000E+00 -0.00000000000E+00 -0.87605959818E+03  0.87605959818E+03  0.00000000000E+00 0.  1.
         -6    2    1    2    0  503  0.31980022773E+02 -0.11341064784E+03 -0.58803746561E+03  0.62494220418E+03  0.17572706310E+03 0.  0.
        -24    2    3    3    0    0  0.73950633810E+01  0.83348204451E+01 -0.16826702054E+03  0.18715721605E+03  0.81178058153E+02 0.  0.
          6    2    1    2  501    0 -0.31980022773E+02  0.11341064784E+03 -0.22930228489E+03  0.30983724169E+03  0.17185715458E+03 0.  0.
         24    2    5    5    0    0  0.36825460368E+02  0.15837152838E+02 -0.83473040515E+02  0.12130862330E+03  0.78365194140E+02 0.  0.
          5    1    5    5  501    0 -0.68805483141E+02  0.97573494999E+02 -0.14582924437E+03  0.18852861839E+03  0.47000000000E+01 0. -1.
        -13    1    6    6    0    0 -0.19804901294E+02  0.11219485412E+02 -0.51039234603E+02  0.55884831905E+02  0.00000000000E+00 0.  1.
         14    1    6    6    0    0  0.56630361662E+02  0.46176674258E+01 -0.32433805912E+02  0.65423791394E+02  0.00000000000E+00 0. -1.
         -5    1    3    3    0  503  0.24584959392E+02 -0.12174546828E+03 -0.41977044507E+03  0.43778498812E+03  0.47000000000E+01 0.  1.
         11    1    4    4    0    0  0.41295797917E+02  0.34541359653E+00 -0.55794704489E+02  0.69415497442E+02  0.00000000000E+00 0. -1.
        -12    1    4    4    0    0 -0.33900734536E+02  0.79894068486E+01 -0.11247231605E+03  0.11774171861E+03  0.00000000000E+00 0.  1.
</event>
<event>
12    1  0.8297444E-002  0.2613237E+03  0.7818608E-02  0.1106642E+00
         21   -1    0    0  503  502  0.00000000000E+00  0.00000000000E+00  0.12978913320E+04  0.12978913320E+04  0.00000000000E+00 0.  1.
         21   -1    0    0  501  503 -0.00000000000E+00 -0.00000000000E+00 -0.58799972455E+02  0.58799972455E+02  0.00000000000E+00 0. -1.
          6    2    1    2  501    0  0.17337489298E+03  0.93054066906E+02  0.39066284321E+03  0.46892949712E+03  0.16899557189E+03 0.  0.
         24    2    3    3    0    0  0.11782488292E+03  0.53543692488E+02  0.36658321031E+03  0.39648094969E+03  0.77873380197E+02 0.  0.
         -6    2    1    2    0  502 -0.17337489298E+03 -0.93054066906E+02  0.84842851637E+03  0.88776180737E+03  0.17196559645E+03 0.  0.
        -24    2    5    5    0    0 -0.96552418429E+02 -0.11803758667E+03  0.67042018569E+03  0.69222427991E+03  0.80349156470E+02 0.  0.
          5    1    3    3  501    0  0.55550010054E+02  0.39510374418E+02  0.24079632899E+02  0.72448547426E+02  0.47000000000E+01 0. -1.
        -11    1    4    4    0    0  0.82695830884E+02  0.41178328327E+02  0.14597351844E+03  0.17274988641E+03  0.00000000000E+00 0.  1.
         12    1    4    4    0    0  0.35129052040E+02  0.12365364161E+02  0.22060969187E+03  0.22373106328E+03  0.00000000000E+00 0. -1.
         -5    1    5    5    0  502 -0.76822474548E+02  0.24983519765E+02  0.17800833068E+03  0.19553752747E+03  0.47000000000E+01 0.  1.
         11    1    6    6    0    0  0.29535538404E+01 -0.99538104926E+01  0.65131095960E+01  0.12256525618E+02  0.00000000000E+00 0. -1.
        -12    1    6    6    0    0 -0.99505972269E+02 -0.10808377618E+03  0.66390707609E+03  0.67996775429E+03  0.00000000000E+00 0.  1.
</event>
<event>
12    1  0.8297444E-002  0.1913993E+03  0.7818608E-02  0.1157714E+00
         21   -1    0    0  503  502  0.00000000000E+00  0.00000000000E+00  0.21961205619E+02  0.21961205619E+02  0.00000000000E+00 0.  1.
         21   -1    0    0  501  503 -0.00000000000E+00 -0.00000000000E+00 -0.19950884922E+04  0.19950884922E+04  0.00000000000E+00 0. -1.
          6    2    1    2  501    0  0.45412697347E+02 -0.65136896165E+02 -0.56132764286E+03  0.59233501716E+03  0.17165931842E+03 0.  0.
         24    2    3    3    0    0 -0.20451612228E+01 -0.99419822643E+02 -0.42439447267E+03  0.44333719676E+03  0.80924148300E+02 0.  0.
         -6    2    1    2    0  502 -0.45412697347E+02  0.65136896165E+02 -0.14117996438E+04  0.14247146807E+04  0.17415096593E+03 0.  0.
        -24    2    5    5    0    0 -0.70725478634E+02  0.81453393938E+02 -0.72436424194E+03  0.73660387081E+03  0.79025051622E+02 0.  0.
          5    1    3    3  501    0  0.47457858570E+02  0.34282926477E+02 -0.13693317018E+03  0.14899782040E+03  0.47000000000E+01 0. -1.
        -13    1    4    4    0    0  0.21897503363E+02 -0.47024615970E+02 -0.88853487695E+02  0.10288711016E+03  0.00000000000E+00 0.  1.
         14    1    4    4    0    0 -0.23942664586E+02 -0.52395206673E+02 -0.33554098498E+03  0.34045008661E+03  0.00000000000E+00 0. -1.
         -5    1    5    5    0  502  0.25312781287E+02 -0.16316497773E+02 -0.68743540183E+03  0.68811080989E+03  0.47000000000E+01 0.  1.
         13    1    6    6    0    0 -0.51606827109E+01  0.11813795193E+02 -0.34923717415E+03  0.34947503804E+03  0.00000000000E+00 0. -1.
        -14    1    6    6    0    0 -0.65564795923E+02  0.69639598745E+02 -0.37512706779E+03  0.38712883278E+03  0.00000000000E+00 0.  1.
</event>
<event>
12    1  0.8297444E-002  0.1891727E+03  0.7818608E-02  0.1159381E+00
         21   -1    0    0  501  502  0.00000000000E+00  0.00000000000E+00  0.39379640966E+02  0.39379640966E+02  0.00000000000E+00 0.  1.
         21   -1    0    0  502  503 -0.00000000000E+00 -0.00000000000E+00 -0.13694720250E+04  0.13694720250E+04  0.00000000000E+00 0. -1.
         -6    2    1    2    0  503  0.25127325643E+02  0.73884537295E+02 -0.10743478154E+04  0.10907454066E+04  0.17149928894E+03 0.  0.
        -24    2    3    3    0    0  0.33273974742E+02  0.74236356337E+02 -0.38031893008E+03  0.39665270718E+03  0.77927450444E+02 0.  0.
          6    2    1    2  501    0 -0.25127325643E+02 -0.73884537295E+02 -0.25574456856E+03  0.31810625934E+03  0.17232527540E+03 0.  0.
         24    2    5    5    0    0  0.47514007477E+02 -0.35352224052E+02 -0.11213248502E+03  0.15255257325E+03  0.84801136525E+02 0.  0.
          5    1    5    5  501    0 -0.72641333120E+02 -0.38532313244E+02 -0.14361208354E+03  0.16555368609E+03  0.47000000000E+01 0. -1.
        -13    1    6    6    0    0  0.54603107585E+02 -0.57327626815E+02 -0.95744646820E+02  0.12423764948E+03  0.00000000000E+00 0.  1.
         14    1    6    6    0    0 -0.70891001083E+01  0.21975402763E+02 -0.16387838199E+02  0.28314923764E+02  0.00000000000E+00 0. -1.
         -5    1    3    3    0  503 -0.81466490990E+01 -0.35181904176E+00 -0.69402888536E+03  0.69409269941E+03  0.47000000000E+01 0.  1.
         11    1    4    4    0    0 -0.24925596967E+02  0.31563065499E+02 -0.12325491105E+03  0.12965062894E+03  0.00000000000E+00 0. -1.
        -12    1    4    4    0    0  0.58199571709E+02  0.42673290838E+02 -0.25706401903E+03  0.26700207823E+03  0.00000000000E+00 0.  1.
</event>
<event>
12    1  0.8297444E-002  0.3109891E+03  0.7818608E-02  0.1080004E+00
         21   -1    0    0  501  502  0.00000000000E+00  0.00000000000E+00  0.77218779328E+03  0.77218779328E+03  0.00000000000E+00 0.  1.
         21   -1    0    0  502  503 -0.00000000000E+00 -0.00000000000E+00 -0.14277194751E+03  0.14277194751E+03  0.00000000000E+00 0. -1.
         -6    2    1    2    0  503  0.25334993044E+03 -0.51308776666E+02  0.15194000502E+03  0.34513748161E+03  0.17092494922E+03 0.  0.
        -24    2    3    3    0    0  0.49579004331E+02 -0.32067527214E+02  0.61203120187E+02  0.12119979322E+03  0.86354872385E+02 0.  0.
          6    2    1    2  501    0 -0.25334993044E+03  0.51308776666E+02  0.47747584075E+03  0.56982225918E+03  0.17290300961E+03 0.  0.
         24    2    5    5    0    0 -0.13320738940E+03  0.94670944765E+02  0.29606945640E+03  0.34791039813E+03  0.81717352745E+02 0.  0.
          5    1    5    5  501    0 -0.12014254104E+03 -0.43362168098E+02  0.18140638435E+03  0.22191186104E+03  0.47000000000E+01 0. -1.
        -11    1    6    6    0    0 -0.13238499920E+03  0.58382914865E+02  0.25424523656E+03  0.29253203769E+03  0.00000000000E+00 0.  1.
         12    1    6    6    0    0 -0.82239019824E+00  0.36288029900E+02  0.41824219845E+02  0.55378360442E+02  0.00000000000E+00 0. -1.
         -5    1    3    3    0  503  0.20377092611E+03 -0.19241249452E+02  0.90736884834E+02  0.22393768838E+03  0.47000000000E+01 0.  1.
         11    1    4    4    0    0  0.83229758970E+00 -0.50198977158E+01 -0.21149201098E+02  0.21752719357E+02  0.00000000000E+00 0. -1.
        -12    1    4    4    0    0  0.48746706742E+02 -0.27047629498E+02  0.82352321284E+02  0.99447073866E+02  0.00000000000E+00 0.  1.
</event>
<event>
12    1  0.8297444E-002  0.2671221E+03  0.7818608E-02  0.1102959E+00
         21   -1    0    0  501  502  0.00000000000E+00  0.00000000000E+00  0.15477896959E+03  0.15477896959E+03  0.00000000000E+00 0. -1.
         21   -1    0    0  502  503 -0.00000000000E+00 -0.00000000000E+00 -0.48571111691E+03  0.48571111691E+03  0.00000000000E+00 0. -1.
         -6    2    1    2    0  503 -0.14226501186E+02 -0.20314327339E+03 -0.92842614801E+02  0.28266211859E+03  0.17265149667E+03 0.  0.
        -24    2    3    3    0    0 -0.44570499274E+02 -0.55376719759E+02 -0.28921585293E+01  0.10696667990E+03  0.79877378097E+02 0.  0.
          6    2    1    2  501    0  0.14226501186E+02  0.20314327339E+03 -0.23808953252E+03  0.35782796791E+03  0.17287176248E+03 0.  0.
         24    2    5    5    0    0  0.41318864992E+02  0.10630371517E+03 -0.52306365498E+02  0.14652398934E+03  0.75667662286E+02 0.  0.
          5    1    5    5  501    0 -0.27092363805E+02  0.96839558216E+02 -0.18578316702E+03  0.21130397857E+03  0.47000000000E+01 0. -1.
        -13    1    6    6    0    0 -0.32602790530E+01 -0.33216412314E+01  0.11264064383E+02  0.12187775285E+02  0.00000000000E+00 0.  1.
         14    1    6    6    0    0  0.44579144045E+02  0.10962535640E+03 -0.63570429881E+02  0.13433621405E+03  0.00000000000E+00 0. -1.
         -5    1    3    3    0  503  0.30343998088E+02 -0.14776655363E+03 -0.89950456272E+02  0.17569543868E+03  0.47000000000E+01 0.  1.
         13    1    4    4    0    0 -0.28486968018E+02 -0.40342019264E+02  0.36791981843E+02  0.61584379457E+02  0.00000000000E+00 0. -1.
        -14    1    4    4    0    0 -0.16083531256E+02 -0.15034700495E+02 -0.39684140373E+02  0.45382300446E+02  0.00000000000E+00 0.  1.
</event>
<event>
12    1  0.8297444E-002  0.1852725E+03  0.7818608E-02  0.1162970E+00
         21   -1    0    0  503  502  0.00000000000E+00  0.00000000000E+00  0.11239141564E+03  0.11239141564E+03  0.00000000000E+00 0.  1.
         21   -1    0    0  501  503 -0.00000000000E+00 -0.00000000000E+00 -0.50245675757E+03  0.50245675757E+03  0.00000000000E+00 0. -1.
          6    2    1    2  501    0  0.65845720661E+02 -0.16934014071E+02 -0.38838900192E+03  0.43031605951E+03  0.17234695965E+03 0.  0.
         24    2    3    3    0    0  0.27910188513E+02 -0.74350992233E+02 -0.28470267808E+03  0.30578189660E+03  0.78357544082E+02 0.  0.
         -6    2    1    2    0  502 -0.65845720661E+02  0.16934014071E+02 -0.16763400105E+01  0.18453211370E+03  0.17154262184E+03 0.  0.
        -24    2    5    5    0    0 -0.54485276088E+01 -0.43453508329E+02  0.24911621961E+02  0.94958213973E+02  0.80489624506E+02 0.  0.
          5    1    3    3  501    0  0.37935532147E+02  0.57416978162E+02 -0.10368632384E+03  0.12453416291E+03  0.47000000000E+01 0. -1.
        -13    1    4    4    0    0  0.41103130644E+02 -0.46986813101E+02 -0.95090553655E+02  0.11375166526E+03  0.00000000000E+00 0.  1.
         14    1    4    4    0    0 -0.13192942131E+02 -0.27364179132E+02 -0.18961212442E+03  0.19203023135E+03  0.00000000000E+00 0. -1.
         -5    1    5    5    0  502 -0.60397193052E+02  0.60387522400E+02 -0.26587961971E+02  0.89573899725E+02  0.47000000000E+01 0.  1.
         11    1    6    6    0    0  0.11110569474E+01 -0.21771230260E+02 -0.29116727238E+02  0.36373131837E+02  0.00000000000E+00 0. -1.
        -12    1    6    6    0    0 -0.65595845562E+01 -0.21682278069E+02  0.54028349199E+02  0.58585082137E+02  0.00000000000E+00 0.  1.
</event>
<event>
12    1  0.8297444E-002  0.1931483E+03  0.7818608E-02  0.1156649E+00
         21   -1    0    0  503  502  0.00000000000E+00  0.00000000000E+00  0.20838173771E+04  0.20838173771E+04  0.00000000000E+00 0. -1.
         21   -1    0    0  501  503 -0.00000000000E+00 -0.00000000000E+00 -0.17591469707E+02  0.17591469707E+02  0.00000000000E+00 0. -1.
          6    2    1    2  501    0 -0.15591162487E+01 -0.79854927551E+02  0.94208554067E+03  0.96079592313E+03  0.17095145411E+03 0.  0.
         24    2    3    3    0    0 -0.39475224248E+02 -0.49842781901E+00  0.59556442836E+03  0.60325703493E+03  0.87541533620E+02 0.  0.
         -6    2    1    2    0  502  0.15591162487E+01  0.79854927551E+02  0.11241403667E+04  0.11406129237E+04  0.17586084632E+03 0.  0.
        -24    2    5    5    0    0  0.68455221491E+02  0.53818811904E+02  0.80124764838E+03  0.80980366478E+03  0.78750235498E+02 0.  0.
          5    1    3    3  501    0  0.37916108000E+02 -0.79356499732E+02  0.34652111231E+03  0.35753888820E+03  0.47000000000E+01 0. -1.
        -13    1    4    4    0    0 -0.43942525806E+02 -0.35578979286E+02  0.27530072871E+03  0.28104679427E+03  0.00000000000E+00 0.  1.
         14    1    4    4    0    0  0.44673015573E+01  0.35080551467E+02  0.32026369965E+03  0.32221024066E+03  0.00000000000E+00 0. -1.
         -5    1    5    5    0  502 -0.66896105242E+02  0.26036115647E+02  0.32289271834E+03  0.33080925890E+03  0.47000000000E+01 0.  1.
         13    1    6    6    0    0  0.37702036091E+02  0.31104487029E+02  0.69792553140E+03  0.69963489051E+03  0.00000000000E+00 0. -1.
        -14    1    6    6    0    0  0.30753185399E+02  0.22714324876E+02  0.10332211698E+03  0.11016877427E+03  0.00000000000E+00 0.  1.
</event>
<event>
12    1  0.8297444E-002  0.2023418E+03  0.7818608E-02  0.1147831E+00
         21   -1    0    0  503  502  0.00000000000E+00  0.00000000000E+00  0.54012818488E+03  0.54012818488E+03  0.00000000000E+00 0. -1.
         21   -1    0    0  501  503 -0.00000000000E+00 -0.00000000000E+00 -0.15197536965E+03  0.15197536965E+03  0.00000000000E+00 0. -1.
          6    2    1    2  501    0 -0.10517139197E+03  0.35405260741E+01 -0.51135181735E+02  0.20845475099E+03  0.17252541663E+03 0.  0.
         24    2    3    3    0    0 -0.10975484564E+03  0.56545425007E+02 -0.50561233903E+02  0.15504176779E+03  0.78981011342E+02 0.  0.
         -6    2    1    2    0  502  0.10517139197E+03 -0.35405260741E+01  0.43928799696E+03  0.48364880354E+03  0.17282553018E+03 0.  0.
        -24    2    5    5    0    0  0.14904754689E+02  0.48711743783E+02  0.17072188190E+03  0.19550263635E+03  0.80500522760E+02 0.  0.
          5    1    3    3  501    0  0.45834536716E+01 -0.53004898933E+02 -0.57394783162E+00  0.53412983202E+02  0.47000000000E+01 0. -1.
        -11    1    4    4    0    0 -0.83302155225E+02  0.63053956181E+02 -0.83564067685E+01  0.10480877821E+03  0.00000000000E+00 0.  1.
         12    1    4    4    0    0 -0.26452690418E+02 -0.65085311742E+01 -0.42204827135E+02  0.50232989577E+02  0.00000000000E+00 0. -1.
         -5    1    5    5    0  502  0.90266637282E+02 -0.52252269857E+02  0.26856611506E+03  0.28814616719E+03  0.47000000000E+01 0.  1.
         13    1    6    6    0    0 -0.23138077162E-01 -0.18534515522E+02  0.76942474301E+02  0.79143370869E+02  0.00000000000E+00 0. -1.
        -14    1    6    6    0    0  0.14927892767E+02  0.67246259305E+02  0.93779407600E+02  0.11635926548E+03  0.00000000000E+00 0.  1.
</event>
<event>
12    1  0.8297444E-002  0.2104442E+03  0.7818608E-02  0.1141299E+00
         21   -1    0    0  501  502  0.00000000000E+00  0.00000000000E+00  0.13585145742E+04  0.13585145742E+04  0.00000000000E+00 0.  1.
         21   -1    0    0  502  503 -0.00000000000E+00 -0.00000000000E+00 -0.33489992844E+02  0.33489992844E+02  0.00000000000E+00 0. -1.
         -6    2    1    2    0  503 -0.31706387425E+02 -0.11611394285E+03  0.77949568162E+03  0.80729219289E+03  0.17210294686E+03 0.  0.
        -24    2    3    3    0    0 -0.33384627285E+02 -0.32739468205E+02  0.18891080841E+03  0.21083037352E+03  0.81090978203E+02 0.  0.
          6    2    1    2  501    0  0.31706387425E+02  0.11611394285E+03  0.54552889971E+03  0.58471237412E+03  0.17262397663E+03 0.  0.
         24    2    5    5    0    0 -0.67069583516E+00  0.13697503681E+03  0.49955261375E+03  0.52455117706E+03  0.82695301591E+02 0.  0.
          5    1    5    5  501    0  0.32377083260E+02 -0.20861093963E+02  0.45976285955E+02  0.60161197062E+02  0.47000000000E+01 0. -1.
        -13    1    6    6    0    0 -0.14630304434E+02  0.40897296820E+02  0.29438351976E+03  0.29757064943E+03  0.00000000000E+00 0.  1.
         14    1    6    6    0    0  0.13959608599E+02  0.96077739989E+02  0.20516909399E+03  0.22698052763E+03  0.00000000000E+00 0. -1.
         -5    1    3    3    0  503  0.16782398601E+01 -0.83374474641E+02  0.59058487321E+03  0.59646181937E+03  0.47000000000E+01 0.  1.
         11    1    4    4    0    0 -0.29021488801E+02 -0.50309774444E+02  0.18266974377E+03  0.19168086891E+03  0.00000000000E+00 0. -1.
        -12    1    4    4    0    0 -0.43631384836E+01  0.17570306240E+02  0.62410646360E+01  0.19149504604E+02  0.00000000000E+00 0.  1.
</event>
<event>
12    1  0.8297444E-002  0.2033330E+03  0.7818608E-02  0.1148132E+00
         21   -1    0    0  503  502  0.00000000000E+00  0.00000000000E+00  0.79506872191E+03  0.79506872191E+03  0.00000000000E+00 0. -1.
         21   -1    0    0  501  503 -0.00000000000E+00 -0.00000000000E+00 -0.10728605556E+03  0.10728605556E+03  0.00000000000E+00 0. -1.
          6    2    1    2  501    0 -0.99076422088E+02 -0.15386932464E+02  0.18151971953E+02  0.20414161234E+03  0.17689377802E+03 0.  0.
         24    2    3    3    0    0  0.15483900939E+02 -0.30365435249E+02  0.17219029195E+02  0.88506913660E+02  0.79844648869E+02 0.  0.
         -6    2    1    2    0  502  0.99076422088E+02  0.15386932464E+02  0.66963069439E+03  0.69821316512E+03  0.17042142464E+03 0.  0.
        -24    2    5    5    0    0  0.67148633734E+02 -0.52400994234E+02  0.48641352820E+03  0.50021011802E+03  0.79732292985E+02 0.  0.
          5    1    3    3  501    0 -0.11456032303E+03  0.14978502785E+02  0.93294275830E+00  0.11563469869E+03  0.47000000000E+01 0. -1.
        -11    1    4    4    0    0  0.61393411092E+01 -0.20639321518E+02  0.49250234356E+02  0.53751824956E+02  0.00000000000E+00 0.  1.
         12    1    4    4    0    0  0.93445598299E+01 -0.97261137309E+01 -0.32031205161E+02  0.34755088704E+02  0.00000000000E+00 0. -1.
         -5    1    5    5    0  502  0.31927788354E+02  0.67787926698E+02  0.18321716619E+03  0.19800304710E+03  0.47000000000E+01 0.  1.
         13    1    6    6    0    0 -0.17856636979E+02 -0.11660409310E+02  0.11907262065E+03  0.12096740726E+03  0.00000000000E+00 0. -1.
        -14    1    6    6    0    0  0.85005270713E+02 -0.40740584924E+02  0.36734090755E+03  0.37924271077E+03  0.00000000000E+00 0.  1.
</event>
<event>
12    1  0.8297444E-002  0.1798266E+03  0.7818608E-02  0.1167983E+00
         21   -1    0    0  503  502  0.00000000000E+00  0.00000000000E+00  0.29032430044E+03  0.29032430044E+03  0.00000000000E+00 0.  1.
         21   -1    0    0  501  503 -0.00000000000E+00 -0.00000000000E+00 -0.13569197897E+03  0.13569197897E+03  0.00000000000E+00 0.  1.
          6    2    1    2  501    0  0.48113077247E+02  0.19820413857E+02 -0.12886427098E+02  0.18028773580E+03  0.17213335142E+03 0.  0.
         24    2    3    3    0    0 -0.39104399160E+02  0.29549683185E+02  0.24119888976E+01  0.91081915341E+02  0.76731739208E+02 0.  0.
         -6    2    1    2    0  502 -0.48113077247E+02 -0.19820413857E+02  0.16751874857E+03  0.24572854361E+03  0.17208215775E+03 0.  0.
        -24    2    5    5    0    0 -0.18307977080E+02  0.21868164713E+02  0.16683415763E+02  0.86355806918E+02  0.79784649991E+02 0.  0.
          5    1    3    3  501    0  0.87217476407E+02 -0.97292693277E+01 -0.15298415996E+02  0.89205820463E+02  0.47000000000E+01 0. -1.
        -11    1    4    4    0    0 -0.67309815272E+01 -0.16267996540E+02 -0.23436612142E+02  0.29312601598E+02  0.00000000000E+00 0.  1.
         12    1    4    4    0    0 -0.32373417633E+02  0.45817679724E+02  0.25848601040E+02  0.61769313743E+02  0.00000000000E+00 0. -1.
         -5    1    5    5    0  502 -0.29805100167E+02 -0.41688578570E+02  0.15083533281E+03  0.15937273670E+03  0.47000000000E+01 0.  1.
         13    1    6    6    0    0 -0.46296144529E+02  0.27902958486E+02  0.19774301111E+02  0.57558066984E+02  0.00000000000E+00 0. -1.
        -14    1    6    6    0    0  0.27988167449E+02 -0.60347937729E+01 -0.30908853488E+01  0.28797739934E+02  0.00000000000E+00 0.  1.
</event>
<event>
12    1  0.8297444E-002  0.3316814E+03  0.7818608E-02  0.1070396E+00
         21   -1    0    0  503  502  0.00000000000E+00  0.00000000000E+00  0.47323134419E+03  0.47323134419E+03  0.00000000000E+00 0.  1.
         21   -1    0    0  501  503 -0.00000000000E+00 -0.00000000000E+00 -0.24488982102E+03  0.24488982102E+03  0.00000000000E+00 0.  1.
          6    2    1    2  501    0  0.25470808735E+03 -0.12465467127E+03  0.33294389469E+02  0.33334077193E+03  0.17202487329E+03 0.  0.
         24    2    3    3    0    0  0.24519946761E+03 -0.15084780524E+03  0.13003364112E+02  0.29855126451E+03  0.78012375930E+02 0.  0.
         -6    2    1    2    0  502 -0.25470808735E+03  0.12465467127E+03  0.19504713370E+03  0.38478039327E+03  0.17203944271E+03 0.  0.
        -24    2    5    5    0    0 -0.17342531321E+03  0.14787422363E+03  0.11012954006E+03  0.26486740526E+03  0.77994240166E+02 0.  0.
          5    1    3    3  501    0  0.95086197422E+01  0.26193133975E+02  0.20291025357E+02  0.34789507425E+02  0.47000000000E+01 0. -1.
        -11    1    4    4    0    0  0.10480609296E+03 -0.93842868033E+02  0.36195514088E+02  0.14526154427E+03  0.00000000000E+00 0.  1.
         12    1    4    4    0    0  0.14039337465E+03 -0.57004937210E+02 -0.23192149976E+02  0.15328972024E+03  0.00000000000E+00 0. -1.
         -5    1    5    5    0  502 -0.81282774146E+02 -0.23219552361E+02  0.84917593638E+02  0.11991298801E+03  0.47000000000E+01 0.  1.
         13    1    6    6    0    0 -0.45915770549E+02  0.41666393666E+02 -0.60433406656E+01  0.62296615580E+02  0.00000000000E+00 0. -1.
        -14    1    6    6    0    0 -0.12750954266E+03  0.10620782996E+03  0.11617288073E+03  0.20257078968E+03  0.00000000000E+00 0.  1.
</event>
<event>
12    1  0.8297444E-002  0.1898229E+03  0.7818608E-02  0.1159103E+00
         21   -1    0    0  503  502  0.00000000000E+00  0.00000000000E+00  0.60173791638E+02  0.60173791638E+02  0.00000000000E+00 0. -1.
         21   -1    0    0  501  503 -0.00000000000E+00 -0.00000000000E+00 -0.67822401710E+03  0.67822401710E+03  0.00000000000E+00 0. -1.
          6    2    1    2  501    0  0.75721207090E+02 -0.65830853623E+01 -0.43904577411E+03  0.47748533575E+03  0.17162172318E+03 0.  0.
         24    2    3    3    0    0  0.79996755525E+02 -0.85671058294E+01 -0.44928307392E+03  0.46527431782E+03  0.90288615639E+02 0.  0.
         -6    2    1    2    0  502 -0.75721207090E+02  0.65830853623E+01 -0.17900445135E+03  0.26091247299E+03  0.17394161878E+03 0.  0.
        -24    2    5    5    0    0 -0.51235368796E+02 -0.14485495913E+02 -0.51522497716E+02  0.12931771665E+03  0.10598873271E+03 0.  0.
          5    1    3    3  501    0 -0.42755484355E+01  0.19840204671E+01  0.10237299802E+02  0.12211017930E+02  0.47000000000E+01 0. -1.
        -13    1    4    4    0    0  0.49921563928E+02  0.24236046915E+02 -0.11123262008E+03  0.12430705646E+03  0.00000000000E+00 0.  1.
         14    1    4    4    0    0  0.30075191597E+02 -0.32803152744E+02 -0.33805045383E+03  0.34096726136E+03  0.00000000000E+00 0. -1.
         -5    1    5    5    0  502 -0.24485838294E+02  0.21068581275E+02 -0.12748195363E+03  0.13159475634E+03  0.47000000000E+01 0.  1.
         11    1    6    6    0    0 -0.54234958884E+02  0.35423767637E+02 -0.12690347026E+02  0.66009991565E+02  0.00000000000E+00 0. -1.
        -12    1    6    6    0    0  0.29995900878E+01 -0.49909263550E+02 -0.38832150690E+02  0.63307725090E+02  0.00000000000E+00 0.  1.
</event>
<event>
12    1  0.8297444E-002  0.1962263E+03  0.7818608E-02  0.1153189E+00
         21   -1    0    0  503  502  0.00000000000E+00  0.00000000000E+00  0.75237284228E+03  0.75237284228E+03  0.00000000000E+00 0. -1.
         21   -1    0    0  501  503 -0.00000000000E+00 -0.00000000000E+00 -0.92633417932E+02  0.92633417932E+02  0.00000000000E+00 0. -1.
          6    2    1    2  501    0 -0.88291753879E+02 -0.28373738328E+02  0.46784732698E+02  0.20172651415E+03  0.17292851838E+03 0.  0.
         24    2    3    3    0    0 -0.26931467913E+01  0.37446449010E+02  0.18157905828E+02  0.89918626181E+02  0.79662790606E+02 0.  0.
         -6    2    1    2    0  502  0.88291753879E+02  0.28373738328E+02  0.61295469165E+03  0.64327974606E+03  0.17174071981E+03 0.  0.
        -24    2    5    5    0    0  0.46402334342E+02  0.83035352331E+02  0.33466018185E+03  0.35655245455E+03  0.78001084321E+02 0.  0.
          5    1    3    3  501    0 -0.85598607087E+02 -0.65820187337E+02  0.28626826870E+02  0.11180788797E+03  0.47000000000E+01 0. -1.
        -13    1    4    4    0    0 -0.30483058956E+02  0.15318334861E+02  0.36481414613E+02  0.49947591317E+02  0.00000000000E+00 0.  1.
         14    1    4    4    0    0  0.27789912165E+02  0.22128114149E+02 -0.18323508785E+02  0.39971034864E+02  0.00000000000E+00 0. -1.
         -5    1    5    5    0  502  0.41889419537E+02 -0.54661614003E+02  0.27829450980E+03  0.28672729152E+03  0.47000000000E+01 0.  1.
         11    1    6    6    0    0  0.46492288921E+02  0.56946087381E+02  0.12303232064E+03  0.14332250947E+03  0.00000000000E+00 0. -1.
        -12    1    6    6    0    0 -0.89954579668E-01  0.26089264949E+02  0.21162786121E+03  0.21322994508E+03  0.00000000000E+00 0.  1.
</event>
<event>
12    1  0.8297444E-002  0.2362316E+03  0.7818608E-02  0.1123785E+00
         21   -1    0    0  501  502  0.00000000000E+00  0.00000000000E+00  0.28112019050E+02  0.28112019050E+02  0.00000000000E+00 0. -1.
         21   -1    0    0  502  503 -0.00000000000E+00 -0.00000000000E+00 -0.19213731079E+04  0.19213731079E+04  0.00000000000E+00 0. -1.
         -6    2    1    2    0  503 -0.14069056807E+03 -0.52262468479E+02 -0.87406342485E+03  0.90326849285E+03  0.17141148723E+03 0.  0.
        -24    2    3    3    0    0 -0.10187083115E+03  0.16942549508E+02 -0.35231980225E+03  0.37550452647E+03  0.78801587000E+02 0.  0.
          6    2    1    2  501    0  0.14069056807E+03  0.52262468479E+02 -0.10191976640E+04  0.10462166341E+04  0.18242852194E+03 0.  0.
         24    2    5    5    0    0 -0.21848324482E+02 -0.70093832308E+01 -0.29838091147E+03  0.30491310334E+03  0.58432452641E+02 0.  0.
          5    1    5    5  501    0  0.16253889255E+03  0.59271851710E+02 -0.72081675256E+03  0.74130353079E+03  0.47000000000E+01 0. -1.
        -11    1    6    6    0    0  0.87687176293E+00  0.24143314975E+02 -0.10872069220E+03  0.11137260648E+03  0.00000000000E+00 0.  1.
         12    1    6    6    0    0 -0.22725196245E+02 -0.31152698206E+02 -0.18966021927E+03  0.19354049686E+03  0.00000000000E+00 0. -1.
         -5    1    3    3    0  503 -0.38819736919E+02 -0.69205017987E+02 -0.52174362260E+03  0.52776396638E+03  0.47000000000E+01 0.  1.
         11    1    4    4    0    0 -0.82233039870E+02 -0.16898413038E+02 -0.29011850719E+03  0.30202082283E+03  0.00000000000E+00 0. -1.
        -12    1    4    4    0    0 -0.19637791283E+02  0.33840962546E+02 -0.62201295064E+02  0.73483703637E+02  0.00000000000E+00 0.  1.
</event>
<event>
12    1  0.8297444E-002  0.1849180E+03  0.7818608E-02  0.1163513E+00
         21   -1    0    0  503  502  0.00000000000E+00  0.00000000000E+00  0.12495681831E+03  0.12495681831E+03  0.00000000000E+00 0. -1.
         21   -1    0    0  501  503 -0.00000000000E+00 -0.00000000000E+00 -0.12999036485E+04  0.12999036485E+04  0.00000000000E+00 0. -1.
          6    2    1    2  501    0  0.51721994101E+02 -0.36563089560E+02 -0.12206881727E+04  0.12343691954E+04  0.17197578690E+03 0.  0.
         24    2    3    3    0    0  0.65743178402E+02 -0.48011843887E+02 -0.47154293604E+03  0.48499055729E+03  0.78967065707E+02 0.  0.
         -6    2    1    2    0  502 -0.51721994101E+02  0.36563089560E+02  0.45741342538E+02  0.19049127143E+03  0.17373148788E+03 0.  0.
        -24    2    5    5    0    0 -0.46029511542E+02  0.86808125426E+02  0.59611463667E+02  0.13784682018E+03  0.76117361101E+02 0.  0.
          5    1    3    3  501    0 -0.14021184301E+02  0.11448754327E+02 -0.74914523668E+03  0.74937863809E+03  0.47000000000E+01 0. -1.
        -13    1    4    4    0    0  0.12793228070E+02 -0.58118197616E+02 -0.24788944328E+03  0.25493247668E+03  0.00000000000E+00 0.  1.
         14    1    4    4    0    0  0.52949950332E+02  0.10106353730E+02 -0.22365349276E+03  0.23005808060E+03  0.00000000000E+00 0. -1.
         -5    1    5    5    0  502 -0.56924825587E+01 -0.50245035867E+02 -0.13870121129E+02  0.52644451246E+02  0.47000000000E+01 0.  1.
         13    1    6    6    0    0 -0.55931150115E+02  0.24429934625E+02  0.26560791130E+02  0.66562683873E+02  0.00000000000E+00 0. -1.
        -14    1    6    6    0    0  0.99016385732E+01  0.62378190802E+02  0.33050672537E+02  0.71284136309E+02  0.00000000000E+00 0.  1.
</event>
<event>
12    1  0.8297444E-002  0.2361940E+03  0.7818608E-02  0.1124226E+00
         21   -1    0    0  503  502  0.00000000000E+00  0.00000000000E+00  0.26156929893E+03  0.26156929893E+03  0.00000000000E+00 0. -1.
         21   -1    0    0  501  503 -0.00000000000E+00 -0.00000000000E+00 -0.50335007132E+03  0.50335007132E+03  0.00000000000E+00 0. -1.
          6    2    1    2  501    0 -0.12204804258E+03  0.10545821864E+03 -0.41481427157E+03  0.47212562260E+03  0.15752638840E+03 0.  0.
         24    2    3    3    0    0 -0.34860455743E+02  0.97937625259E+02 -0.18694135430E+03  0.22798142126E+03  0.78876033594E+02 0.  0.
         -6    2    1    2    0  502  0.12204804258E+03 -0.10545821864E+03  0.17303349918E+03  0.29279374766E+03  0.17254108570E+03 0.  0.
        -24    2    5    5    0    0  0.13546379108E+03 -0.90234310933E+02  0.19243253054E+03  0.26433040120E+03  0.79671906129E+02 0.  0.
          5    1    3    3  501    0 -0.87187586835E+02  0.75205933790E+01 -0.22787291727E+03  0.24414420134E+03  0.47000000000E+01 0. -1.
        -13    1    4    4    0    0 -0.24676420803E+02 -0.61829978540E+01 -0.44350053403E+02  0.51128098370E+02  0.00000000000E+00 0.  1.
         14    1    4    4    0    0 -0.10184034940E+02  0.10412062311E+03 -0.14259130089E+03  0.17685332288E+03  0.00000000000E+00 0. -1.
         -5    1    5    5    0  502 -0.13415748502E+02 -0.15223907705E+02 -0.19399031363E+02  0.28463346456E+02  0.47000000000E+01 0.  1.
         11    1    6    6    0    0  0.71607178392E+02 -0.92734408062E+02  0.11933132892E+03  0.16723404109E+03  0.00000000000E+00 0. -1.
        -12    1    6    6    0    0  0.63856612688E+02  0.25000971295E+01  0.73101201617E+02  0.97096360114E+02  0.00000000000E+00 0.  1.
</event>
<event>
12    1  0.8297444E-002  0.1785591E+03  0.7818608E-02  0.1169740E+00
         21   -1    0    0  501  502  0.00000000000E+00  0.00000000000E+00  0.11096315862E+03  0.11096315862E+03  0.00000000000E+00 0. -1.
         21   -1    0    0  502  503 -0.00000000000E+00 -0.00000000000E+00 -0.39496055558E+03  0.39496055558E+03  0.00000000000E+00 0. -1.
         -6    2    1    2    0  503  0.47809827446E+02  0.14866177843E+02 -0.27679362363E+03  0.32939046234E+03  0.17139598524E+03 0.  0.
        -24    2    3    3    0    0  0.38036418596E+02 -0.45111519603E+02 -0.23618364257E+03  0.25615041678E+03  0.79677504109E+02 0.  0.
          6    2    1    2  501    0 -0.47809827446E+02 -0.14866177843E+02 -0.72037733344E+01  0.17653325186E+03  0.16913104925E+03 0.  0.
         24    2    5    5    0    0 -0.65681406624E+01 -0.53519226969E+02  0.36556983175E+02  0.10489507248E+03  0.82213837546E+02 0.  0.
          5    1    5    5  501    0 -0.41241686784E+02  0.38653049125E+02 -0.43760756509E+02  0.71638179386E+02  0.47000000000E+01 0. -1.
        -13    1    6    6    0    0 -0.31800630462E+02 -0.25092686170E+02 -0.12905962268E+02  0.42514548793E+02  0.00000000000E+00 0.  1.
         14    1    6    6    0    0  0.25232489799E+02 -0.28426540799E+02  0.49462945443E+02  0.62380523685E+02  0.00000000000E+00 0. -1.
         -5    1    3    3    0  503  0.97734088504E+01  0.59977697446E+02 -0.40609981062E+02  0.73240045558E+02  0.47000000000E+01 0.  1.
         13    1    4    4    0    0  0.33676610749E+02  0.97464355588E+01 -0.14886296852E+03  0.15293557635E+03  0.00000000000E+00 0. -1.
        -14    1    4    4    0    0  0.43598078468E+01 -0.54857955161E+02 -0.87320674047E+02  0.10321484043E+03  0.00000000000E+00 0.  1.
</event>
<event>
12    1  0.8297444E-002  0.2509479E+03  0.7818608E-02  0.1112709E+00
         21   -1    0    0  503  502  0.00000000000E+00  0.00000000000E+00  0.35991004796E+03  0.35991004796E+03  0.00000000000E+00 0.  1.
         21   -1    0    0  501  503 -0.00000000000E+00 -0.00000000000E+00 -0.75883567999E+03  0.75883567999E+03  0.00000000000E+00 0.  1.
          6    2    1    2  501    0  0.17791021400E+03  0.39830517180E+02 -0.69012661131E+03  0.73433340128E+03  0.17243053743E+03 0.  0.
         24    2    3    3    0    0  0.19423856647E+02 -0.95936064574E+01 -0.27994595630E+03  0.29180551604E+03  0.79444302811E+02 0.  0.
         -6    2    1    2    0  502 -0.17791021400E+03 -0.39830517180E+02  0.29120097929E+03  0.38441232667E+03  0.17244219963E+03 0.  0.
        -24    2    5    5    0    0 -0.13425338451E+03  0.27423015557E+02  0.24366826403E+03  0.29108277376E+03  0.81110820794E+02 0.  0.
          5    1    3    3  501    0  0.15848635736E+03  0.49424123638E+02 -0.41018065501E+03  0.44252788524E+03  0.47000000000E+01 0. -1.
        -11    1    4    4    0    0  0.38691271879E+02  0.22611685457E+02 -0.15341774525E+03  0.15982899423E+03  0.00000000000E+00 0.  1.
         12    1    4    4    0    0 -0.19267415232E+02 -0.32205291914E+02 -0.12652821105E+03  0.13197652181E+03  0.00000000000E+00 0. -1.
         -5    1    5    5    0  502 -0.43656829492E+02 -0.67253532738E+02  0.47532715263E+02  0.93329552915E+02  0.47000000000E+01 0.  1.
         13    1    6    6    0    0 -0.80513658279E+01  0.31809379753E+02  0.45414684703E+02  0.56028160050E+02  0.00000000000E+00 0. -1.
        -14    1    6    6    0    0 -0.12620201868E+03 -0.43863641956E+01  0.19825357932E+03  0.23505461371E+03  0.00000000000E+00 0.  1.
</event>
<event>
12    1  0.8297444E-002  0.1968108E+03  0.7818608E-02  0.1153250E+00
         21   -1    0    0  501  502  0.00000000000E+00  0.00000000000E+00  0.12633494870E+03  0.12633494870E+03  0.00000000000E+00 0. -1.
         21   -1    0    0  502  503 -0.00000000000E+00 -0.00000000000E+00 -0.30764292880E+03  0.30764292880E+03  0.00000000000E+00 0. -1.
         -6    2    1    2    0  503 -0.68289426868E+02 -0.61213777615E+02 -0.12181819998E+03  0.22837262209E+03  0.17001120045E+03 0.  0.
        -24    2    3    3    0    0  0.73381974627E+01 -0.49437012514E+02 -0.11962675659E+03  0.15165807208E+03  0.78687626656E+02 0.  0.
          6    2    1    2  501    0  0.68289426868E+02  0.61213777615E+02 -0.59489780119E+02  0.20560525541E+03  0.17413763155E+03 0.  0.
         24    2    5    5    0    0  0.93620103157E+02  0.51775695381E+02 -0.92657058700E+02  0.16256017525E+03  0.79968954613E+02 0.  0.
          5    1    5    5  501    0 -0.25330676289E+02  0.94380822342E+01  0.33167278581E+02  0.43045080160E+02  0.47000000000E+01 0. -1.
        -11    1    6    6    0    0  0.88818196533E+02  0.45634553548E+02 -0.37203243074E+02  0.10656108956E+03  0.00000000000E+00 0.  1.
         12    1    6    6    0    0  0.48019066232E+01  0.61411418335E+01 -0.55453815626E+02  0.55999085686E+02  0.00000000000E+00 0. -1.
         -5    1    3    3    0  503 -0.75627624330E+02 -0.11776765101E+02 -0.21914433983E+01  0.76714550004E+02  0.47000000000E+01 0.  1.
         13    1    4    4    0    0 -0.28456208002E+02 -0.30201002202E+02 -0.24433762403E+02  0.48154595347E+02  0.00000000000E+00 0. -1.
        -14    1    4    4    0    0  0.35794405464E+02 -0.19236010312E+02 -0.95192994182E+02  0.10350347674E+03  0.00000000000E+00 0.  1.
</event>
<event>
12    1  0.8297444E-002  0.1949276E+03  0.7818608E-02  0.1154459E+00
         21   -1    0    0  503  502  0.00000000000E+00  0.00000000000E+00  0.69107788874E+03  0.69107788874E+03  0.00000000000E+00 0.  1.
         21   -1    0    0  501  503 -0.00000000000E+00 -0.00000000000E+00 -0.68185251604E+02  0.68185251604E+02  0.00000000000E+00 0.  1.
          6    2    1    2  501    0 -0.88286488549E+02 -0.27525113695E+02  0.14250303165E+03  0.24146194468E+03  0.17159434942E+03 0.  0.
         24    2    3    3    0    0 -0.11418917262E+03  0.76801990135E+01  0.13833976770E+03  0.19730556516E+03  0.81813459278E+02 0.  0.
         -6    2    1    2    0  502  0.88286488549E+02  0.27525113695E+02  0.48038960548E+03  0.51780119567E+03  0.16968137562E+03 0.  0.
        -24    2    5    5    0    0  0.19399166974E+02 -0.40087334855E+02  0.17445137915E+03  0.19696292705E+03  0.79861059672E+02 0.  0.
          5    1    3    3  501    0  0.25902684066E+02 -0.35205312709E+02  0.41632639546E+01  0.44156379511E+02  0.47000000000E+01 0. -1.
        -13    1    4    4    0    0 -0.63736768848E+02  0.21361767823E+02  0.23642807959E+02  0.71257864099E+02  0.00000000000E+00 0.  1.
         14    1    4    4    0    0 -0.50452403768E+02 -0.13681568810E+02  0.11469695974E+03  0.12604770107E+03  0.00000000000E+00 0. -1.
         -5    1    5    5    0  502  0.68887321575E+02  0.67612448550E+02  0.30593822634E+03  0.32083826862E+03  0.47000000000E+01 0.  1.
         11    1    6    6    0    0  0.16397648346E+02 -0.17631747683E+02  0.17255672631E+03  0.17422854299E+03  0.00000000000E+00 0. -1.
        -12    1    6    6    0    0  0.30015186278E+01 -0.22455587172E+02  0.18946528358E+01  0.22734384062E+02  0.00000000000E+00 0.  1.
</event>
<event>
12    1  0.8297444E-002  0.2225136E+03  0.7818608E-02  0.1133053E+00
         21   -1    0    0  503  502  0.00000000000E+00  0.00000000000E+00  0.45824313438E+03  0.45824313438E+03  0.00000000000E+00 0. -1.
         21   -1    0    0  501  503 -0.00000000000E+00 -0.00000000000E+00 -0.28799420945E+03  0.28799420945E+03  0.00000000000E+00 0. -1.
          6    2    1    2  501    0  0.91533248020E+02 -0.97942538710E+02 -0.21237383750E+03  0.30361730537E+03  0.17061578146E+03 0.  0.
         24    2    3    3    0    0  0.98154985849E+02 -0.90427524455E+02 -0.89179854804E+02  0.17992749082E+03  0.81297706132E+02 0.  0.
         -6    2    1    2    0  502 -0.91533248020E+02  0.97942538710E+02  0.38262276243E+03  0.44262003846E+03  0.17759854656E+03 0.  0.
        -24    2    5    5    0    0 -0.99198186887E+02  0.81287548708E+01  0.26466323760E+03  0.29408786500E+03  0.80837405130E+02 0.  0.
          5    1    3    3  501    0 -0.66217378295E+01 -0.75150142552E+01 -0.12319398270E+03  0.12368981455E+03  0.47000000000E+01 0. -1.
        -13    1    4    4    0    0  0.44974702672E+02  0.56356098727E+01 -0.36226751748E+02  0.58024663043E+02  0.00000000000E+00 0.  1.
         14    1    4    4    0    0  0.53180283177E+02 -0.96063134328E+02 -0.52953103056E+02  0.12190282777E+03  0.00000000000E+00 0. -1.
         -5    1    5    5    0  502  0.76649388676E+01  0.89813783839E+02  0.11795952483E+03  0.14853217346E+03  0.47000000000E+01 0.  1.
         13    1    6    6    0    0  0.81135205560E+01 -0.10993691390E+02  0.66835098782E+02  0.68217453011E+02  0.00000000000E+00 0. -1.
        -14    1    6    6    0    0 -0.10731170744E+03  0.19122446261E+02  0.19782813882E+03  0.22587041199E+03  0.00000000000E+00 0.  1.
</event>
<event>
12    1  0.8297444E-002  0.2625137E+03  0.7818608E-02  0.1105685E+00
         21   -1    0    0  501  502  0.00000000000E+00  0.00000000000E+00  0.65946901846E+02  0.65946901846E+02  0.00000000000E+00 0. -1.
         21   -1    0    0  502  503 -0.00000000000E+00 -0.00000000000E+00 -0.10546678397E+04  0.10546678397E+04  0.00000000000E+00 0.  1.
         -6    2    1    2    0  503  0.16863204595E+03  0.10470103862E+03 -0.55144161523E+03  0.61073832090E+03  0.17179745983E+03 0.  0.
        -24    2    3    3    0    0  0.12163529454E+03  0.16037326853E+02 -0.16538921720E+03  0.21182919284E+03  0.49655543928E+02 0.  0.
          6    2    1    2  501    0 -0.16863204595E+03 -0.10470103862E+03 -0.43727932262E+03  0.50987642064E+03  0.17135251362E+03 0.  0.
         24    2    5    5    0    0 -0.16905664663E+03 -0.12460302958E+03 -0.43533314817E+03  0.48933020140E+03  0.76308789516E+02 0.  0.
          5    1    5    5  501    0  0.42460068639E+00  0.19901990960E+02 -0.19461744495E+01  0.20546219236E+02  0.47000000000E+01 0. -1.
        -13    1    6    6    0    0 -0.12560022871E+03 -0.50921170220E+02 -0.23116070742E+03  0.26796204150E+03  0.00000000000E+00 0.  1.
         14    1    6    6    0    0 -0.43456417919E+02 -0.73681859355E+02 -0.20417244075E+03  0.22136815990E+03  0.00000000000E+00 0. -1.
         -5    1    3    3    0  503  0.46996751403E+02  0.88663711762E+02 -0.38605239803E+03  0.39890912806E+03  0.47000000000E+01 0.  1.
         13    1    4    4    0    0  0.73418903043E+02  0.20973640480E+02 -0.64699523936E+02  0.10008125357E+03  0.00000000000E+00 0. -1.
        -14    1    4    4    0    0  0.48216391501E+02 -0.49363136261E+01 -0.10068969326E+03  0.11174793927E+03  0.00000000000E+00 0.  1.
</event>
<event>
12    1  0.8297444E-002  0.1869848E+03  0.7818608E-02  0.1161914E+00
         21   -1    0    0  503  502  0.00000000000E+00  0.00000000000E+00  0.20436842202E+03  0.20436842202E+03  0.00000000000E+00 0. -1.
         21   -1    0    0  501  503 -0.00000000000E+00 -0.00000000000E+00 -0.17656961356E+03  0.17656961356E+03  0.00000000000E+00 0. -1.
          6    2    1    2  501    0 -0.50341332130E+02  0.42784533874E+02 -0.27392440704E+02  0.18597807382E+03  0.17167624202E+03 0.  0.
         24    2    3    3    0    0 -0.62040110409E+02  0.15055145056E+02 -0.78126992438E+02  0.12680151464E+03  0.76806018478E+02 0.  0.
         -6    2    1    2    0  502  0.50341332130E+02 -0.42784533874E+02  0.55191249157E+02  0.19495996176E+03  0.17492440266E+03 0.  0.
        -24    2    5    5    0    0  0.66501633050E+02  0.26683011628E+02  0.15434349020E+02  0.11317000937E+03  0.86225179514E+02 0.  0.
          5    1    3    3  501    0  0.11698778280E+02  0.27729388818E+02  0.50734551734E+02  0.59176559186E+02  0.47000000000E+01 0. -1.
        -11    1    4    4    0    0  0.36536018398E+01 -0.15306984738E+02  0.50690042118E+01  0.16533220856E+02  0.00000000000E+00 0.  1.
         12    1    4    4    0    0 -0.65693712249E+02  0.30362129794E+02 -0.83195996650E+02  0.11026829378E+03  0.00000000000E+00 0. -1.
         -5    1    5    5    0  502 -0.16160300920E+02 -0.69467545502E+02  0.39756900136E+02  0.81789952393E+02  0.47000000000E+01 0.  1.
         13    1    6    6    0    0  0.86121853340E+02  0.26001120580E+02  0.31602099920E+01  0.90016769667E+02  0.00000000000E+00 0. -1.
        -14    1    6    6    0    0 -0.19620220290E+02  0.68189104813E+00  0.12274139028E+02  0.23153239698E+02  0.00000000000E+00 0.  1.
</event>
<event>
12    1  0.8297444E-002  0.1787603E+03  0.7818608E-02  0.1169207E+00
         21   -1    0    0  503  502  0.00000000000E+00  0.00000000000E+00  0.29727263628E+04  0.29727263628E+04  0.00000000000E+00 0.  1.
         21   -1    0    0  501  503 -0.00000000000E+00 -0.00000000000E+00 -0.16408842484E+02  0.16408842484E+02  0.00000000000E+00 0.  1.
          6    2    1    2  501    0 -0.41050062363E+02  0.19801629284E+02  0.59885170884E+03  0.62496287728E+03  0.17285258649E+03 0.  0.
         24    2    3    3    0    0 -0.87324977337E+02  0.41035162876E+02  0.37521952539E+03  0.39556001292E+03  0.79802852856E+02 0.  0.
         -6    2    1    2    0  502  0.41050062363E+02 -0.19801629284E+02  0.23574658115E+04  0.23641723280E+04  0.17201317414E+03 0.  0.
        -24    2    5    5    0    0 -0.37821894534E+02 -0.31930582965E+02  0.15435232955E+04  0.15463139011E+04  0.78565000022E+02 0.  0.
          5    1    3    3  501    0  0.46274914975E+02 -0.21233533593E+02  0.22363218345E+03  0.22940286437E+03  0.47000000000E+01 0. -1.
        -13    1    4    4    0    0 -0.28634402723E+02  0.41600301622E+02  0.80331176789E+02  0.94887365221E+02  0.00000000000E+00 0.  1.
         14    1    4    4    0    0 -0.58690574615E+02 -0.56513874558E+00  0.29488834860E+03  0.30067264769E+03  0.00000000000E+00 0. -1.
         -5    1    5    5    0  502  0.78871956897E+02  0.12128953681E+02  0.81394251600E+03  0.81785842690E+03  0.47000000000E+01 0.  1.
         13    1    6    6    0    0 -0.43305556231E+02  0.14137114143E+02  0.65689696859E+03  0.65847464381E+03  0.00000000000E+00 0. -1.
        -14    1    6    6    0    0  0.54836616965E+01 -0.46067697108E+02  0.88662632689E+03  0.88783925730E+03  0.00000000000E+00 0.  1.
</event>
<event>
12    1  0.8297444E-002  0.2366511E+03  0.7818608E-02  0.1122091E+00
         21   -1    0    0  501  502  0.00000000000E+00  0.00000000000E+00  0.38997851209E+03  0.38997851209E+03  0.00000000000E+00 0.  1.
         21   -1    0    0  502  503 -0.00000000000E+00 -0.00000000000E+00 -0.14459515347E+03  0.14459515347E+03  0.00000000000E+00 0.  1.
         -6    2    1    2    0  503  0.79115323705E+02  0.14206100410E+03  0.14665694215E+03  0.27840975739E+03  0.17193943992E+03 0.  0.
        -24    2    3    3    0    0  0.20683229924E+01  0.13429613611E+03  0.77244677287E+02  0.17431035294E+03  0.79860057834E+02 0.  0.
          6    2    1    2  501    0 -0.79115323705E+02 -0.14206100410E+03  0.98726416469E+02  0.25616390817E+03  0.17155896715E+03 0.  0.
         24    2    5    5    0    0 -0.11418923228E+03 -0.68932759952E+02  0.63041780214E+02  0.16743171323E+03  0.79172005026E+02 0.  0.
          5    1    5    5  501    0  0.35073908571E+02 -0.73128244145E+02  0.35684636255E+02  0.88732194940E+02  0.47000000000E+01 0. -1.
        -13    1    6    6    0    0 -0.11324807304E+03 -0.82797787836E+02  0.51758922691E+02  0.14953122014E+03  0.00000000000E+00 0.  1.
         14    1    6    6    0    0 -0.94115923208E+00  0.13865027884E+02  0.11282857523E+02  0.17900493088E+02  0.00000000000E+00 0. -1.
         -5    1    3    3    0  503  0.77047000713E+02  0.77648679833E+01  0.69412264865E+02  0.10409940445E+03  0.47000000000E+01 0.  1.
         11    1    4    4    0    0 -0.32677235291E+02  0.97994962128E+02  0.66711921534E+02  0.12296867399E+03  0.00000000000E+00 0. -1.
        -12    1    4    4    0    0  0.34745558284E+02  0.36301173987E+02  0.10532755753E+02  0.51341678946E+02  0.00000000000E+00 0.  1.
</event>
<event>
12    1  0.8297444E-002  0.1904071E+03  0.7818608E-02  0.1158516E+00
         21   -1    0    0  503  502  0.00000000000E+00  0.00000000000E+00  0.17746958578E+03  0.17746958578E+03  0.00000000000E+00 0.  1.
         21   -1    0    0  501  503 -0.00000000000E+00 -0.00000000000E+00 -0.79232719320E+03  0.79232719320E+03  0.00000000000E+00 0.  1.
          6    2    1    2  501    0 -0.15714105710E+02  0.74925607157E+02 -0.72625665843E+03  0.75080195846E+03  0.17433894342E+03 0.  0.
         24    2    3    3    0    0 -0.53025186806E+02  0.81767332910E+02 -0.67615534264E+03  0.68778483517E+03  0.79776970022E+02 0.  0.
         -6    2    1    2    0  502  0.15714105710E+02 -0.74925607157E+02  0.11139905101E+03  0.21899482052E+03  0.17230264978E+03 0.  0.
        -24    2    5    5    0    0 -0.38074895832E+02 -0.95161924349E+02  0.70586057890E+02  0.14835095576E+03  0.80747290782E+02 0.  0.
          5    1    3    3  501    0  0.37311081097E+02 -0.68417257532E+01 -0.50101315790E+02  0.63017123291E+02  0.47000000000E+01 0. -1.
        -11    1    4    4    0    0  0.40849415896E+01  0.49554699642E+01 -0.28557686978E+03  0.28564907139E+03  0.00000000000E+00 0.  1.
         12    1    4    4    0    0 -0.57110128396E+02  0.76811862946E+02 -0.39057847286E+03  0.40213576379E+03  0.00000000000E+00 0. -1.
         -5    1    5    5    0  502  0.53789001542E+02  0.20236317192E+02  0.40812993120E+02  0.70643864757E+02  0.47000000000E+01 0.  1.
         13    1    6    6    0    0  0.13585621531E+02 -0.40239220852E+02 -0.35367967795E+01  0.42617753796E+02  0.00000000000E+00 0. -1.
        -14    1    6    6    0    0 -0.51660517363E+02 -0.54922703497E+02  0.74122854670E+02  0.10573320197E+03  0.00000000000E+00 0.  1.
</event>
<event>
12    1  0.8297444E-002  0.6147452E+03  0.7818608E-02  0.9875559E-01
         21   -1    0    0  503  502  0.00000000000E+00  0.00000000000E+00  0.88616110621E+03  0.88616110621E+03  0.00000000000E+00 0.  1.
         21   -1    0    0  501  503 -0.00000000000E+00 -0.00000000000E+00 -0.45010120168E+03  0.45010120168E+03  0.00000000000E+00 0. -1.
          6    2    1    2  501    0 -0.33861118882E+03 -0.48316497927E+03  0.63562523472E+02  0.61746748546E+03  0.17064573487E+03 0.  0.
         24    2    3    3    0    0 -0.24689379805E+03 -0.31254060327E+03  0.10466692521E+03  0.41938563547E+03  0.79315634008E+02 0.  0.
         -6    2    1    2    0  502  0.33861118882E+03  0.48316497927E+03  0.37249738106E+03  0.71879482242E+03  0.17264345762E+03 0.  0.
        -24    2    5    5    0    0  0.26526608160E+03  0.45427865640E+03  0.34936027152E+03  0.63650666872E+03  0.79705384350E+02 0.  0.
          5    1    3    3  501    0 -0.91717390772E+02 -0.17062437599E+03 -0.41104401743E+02  0.19808184999E+03  0.47000000000E+01 0. -1.
        -11    1    4    4    0    0 -0.21290837926E+02 -0.17200485963E+01  0.17995347657E+00  0.21360962759E+02  0.00000000000E+00 0.  1.
         12    1    4    4    0    0 -0.22560296012E+03 -0.31082055468E+03  0.10448697174E+03  0.39802467271E+03  0.00000000000E+00 0. -1.
         -5    1    5    5    0  502  0.73345107223E+02  0.28886322863E+02  0.23137109535E+02  0.82288153702E+02  0.47000000000E+01 0.  1.
         13    1    6    6    0    0  0.21857449130E+03  0.40080835945E+03  0.27158682495E+03  0.53120763618E+03  0.00000000000E+00 0. -1.
        -14    1    6    6    0    0  0.46691590301E+02  0.53470296951E+02  0.77773446577E+02  0.10529903254E+03  0.00000000000E+00 0.  1.
</event>
<event>
12    1  0.8297444E-002  0.1753366E+03  0.7818608E-02  0.1172683E+00
         21   -1    0    0  501  502  0.00000000000E+00  0.00000000000E+00  0.24051042320E+04  0.24051042320E+04  0.00000000000E+00 0. -1.
         21   -1    0    0  502  503 -0.00000000000E+00 -0.00000000000E+00 -0.15139115847E+02  0.15139115847E+02  0.00000000000E+00 0. -1.
         -6    2    1    2    0  503 -0.19554962039E+02  0.17689184663E+02  0.71242393047E+03  0.73368302933E+03  0.17334251360E+03 0.  0.
        -24    2    3    3    0    0 -0.18844623648E+02 -0.36621076605E+02  0.61793476572E+03  0.62459406877E+03  0.81105813404E+02 0.  0.
          6    2    1    2  501    0  0.19554962039E+02 -0.17689184663E+02  0.16775411857E+04  0.16865603186E+04  0.17218006434E+03 0.  0.
         24    2    5    5    0    0 -0.85575981639E+01  0.45021369255E+02  0.70749480093E+03  0.71407123982E+03  0.85139215554E+02 0.  0.
          5    1    5    5  501    0  0.28112560203E+02 -0.62710553918E+02  0.97004638479E+03  0.97248907873E+03  0.47000000000E+01 0. -1.
        -11    1    6    6    0    0 -0.16838401690E+02  0.20040347954E+02  0.53628171007E+02  0.59675187834E+02  0.00000000000E+00 0.  1.
         12    1    6    6    0    0  0.82808035259E+01  0.24981021301E+02  0.65386662992E+03  0.65439605199E+03  0.00000000000E+00 0. -1.
         -5    1    3    3    0  503 -0.71033839170E+00  0.54310261268E+02  0.94489164753E+02  0.10908896056E+03  0.47000000000E+01 0.  1.
         13    1    4    4    0    0  0.81299999002E+01  0.21823457554E+02  0.10006978166E+03  0.10274396040E+03  0.00000000000E+00 0. -1.
        -14    1    4    4    0    0 -0.26974623548E+02 -0.58444534159E+02  0.51786498406E+03  0.52185010837E+03  0.00000000000E+00 0.  1.
</event>
<event>
12    1  0.8297444E-002  0.2088754E+03  0.7818608E-02  0.1142682E+00
         21   -1    0    0  501  502  0.00000000000E+00  0.00000000000E+00  0.73579406144E+03  0.73579406144E+03  0.00000000000E+00 0.  1.
         21   -1    0    0  502  503 -0.00000000000E+00 -0.00000000000E+00 -0.11512768245E+03  0.11512768245E+03  0.00000000000E+00 0.  1.
         -6    2    1    2    0  503  0.26795740675E+02 -0.11314757941E+03  0.13634813224E+02  0.20931992376E+03  0.17351811406E+03 0.  0.
        -24    2    3    3    0    0  0.48699463138E+02 -0.14164920756E+03 -0.74875353306E+00  0.17031873330E+03  0.81066482388E+02 0.  0.
          6    2    1    2  501    0 -0.26795740675E+02  0.11314757941E+03  0.60703156577E+03  0.64160182013E+03  0.17217777821E+03 0.  0.
         24    2    5    5    0    0 -0.74407706272E+02  0.93993967303E+02  0.35277722600E+03  0.38217722720E+03  0.85066380935E+02 0.  0.
          5    1    5    5  501    0  0.47611965597E+02  0.19153612107E+02  0.25425433977E+03  0.25942459293E+03  0.47000000000E+01 0. -1.
        -11    1    6    6    0    0 -0.33822158271E+02  0.68511097437E+02  0.10527932799E+03  0.13008245756E+03  0.00000000000E+00 0.  1.
         12    1    6    6    0    0 -0.40585548001E+02  0.25482869866E+02  0.24749789801E+03  0.25209476964E+03  0.00000000000E+00 0. -1.
         -5    1    3    3    0  503 -0.21903722463E+02  0.28501628152E+02  0.14383566757E+02  0.39001190465E+02  0.47000000000E+01 0.  1.
         11    1    4    4    0    0  0.11355675826E+02 -0.95562539757E+02 -0.34306529994E+02  0.10216696324E+03  0.00000000000E+00 0. -1.
        -12    1    4    4    0    0  0.37343787313E+02 -0.46086667805E+02  0.33557776461E+02  0.68151770052E+02  0.00000000000E+00 0.  1.
</event>
<event>
12    1  0.8297444E-002  0.1796477E+03  0.7818608E-02  0.1168465E+00
         21   -1    0    0  503  502  0.00000000000E+00  0.00000000000E+00  0.48346377856E+03  0.48346377856E+03  0.00000000000E+00 0.  1.
         21   -1    0    0  501  503 -0.00000000000E+00 -0.00000000000E+00 -0.66265728968E+02  0.66265728968E+02  0.00000000000E+00 0.  1.
          6    2    1    2  501    0  0.33034918486E+02 -0.36159363095E+02  0.20961924089E+03  0.27606796479E+03  0.17284238385E+03 0.  0.
         24    2    3    3    0    0  0.72134965968E+02 -0.40166728400E+02  0.78838641186E+02  0.13942782447E+03  0.80048532188E+02 0.  0.
         -6    2    1    2    0  502 -0.33034918486E+02  0.36159363095E+02  0.20757880870E+03  0.27366154273E+03  0.17147265896E+03 0.  0.
        -24    2    5    5    0    0 -0.64043588782E+02  0.67561044197E+02  0.10321383252E+03  0.16025192470E+03  0.79759063364E+02 0.  0.
          5    1    3    3  501    0 -0.39100047483E+02  0.40073653051E+01  0.13078059970E+03  0.13664014033E+03  0.47000000000E+01 0. -1.
        -11    1    4    4    0    0 -0.93706238499E+01 -0.20978373889E+02 -0.19699383620E+01  0.23060386369E+02  0.00000000000E+00 0.  1.
         12    1    4    4    0    0  0.81505589818E+02 -0.19188354511E+02  0.80808579548E+02  0.11636743810E+03  0.00000000000E+00 0. -1.
         -5    1    5    5    0  502  0.31008670297E+02 -0.31401681102E+02  0.10436497618E+03  0.11340961804E+03  0.47000000000E+01 0.  1.
         13    1    6    6    0    0 -0.11177728111E+02  0.68521351019E+02  0.63973329655E+02  0.94407118685E+02  0.00000000000E+00 0. -1.
        -14    1    6    6    0    0 -0.52865860671E+02 -0.96030682247E+00  0.39240502862E+02  0.65844806010E+02  0.00000000000E+00 0.  1.
</event>
<event>
12    1  0.8297444E-002  0.1825105E+03  0.7818608E-02  0.1165684E+00
         21   -1    0    0  501  502  0.00000000000E+00  0.00000000000E+00  0.12794891682E+03  0.12794891682E+03  0.00000000000E+00 0.  1.
         21   -1    0    0  502  503 -0.00000000000E+00 -0.00000000000E+00 -0.32280097118E+03  0.32280097118E+03  0.00000000000E+00 0.  1.
         -6    2    1    2    0  503  0.31306981282E+02  0.53717674060E+02 -0.19766423326E+03  0.26821775856E+03  0.17030531793E+03 0.  0.
        -24    2    3    3    0    0 -0.39594313800E+02  0.55901398389E+02 -0.86944159980E+02  0.13663969457E+03  0.80115186767E+02 0.  0.
          6    2    1    2  501    0 -0.31306981282E+02 -0.53717674060E+02  0.28121789036E+01  0.18253212944E+03  0.17159357315E+03 0.  0.
         24    2    5    5    0    0 -0.89643617671E+02 -0.58692709940E+02 -0.93013876639E+01  0.12255928040E+03  0.58766053219E+02 0.  0.
          5    1    5    5  501    0  0.58336636389E+02  0.49750358802E+01  0.12113566568E+02  0.59972849042E+02  0.47000000000E+01 0. -1.
        -11    1    6    6    0    0 -0.51043228477E+02  0.92460979497E+00 -0.66961540369E+01  0.51488877979E+02  0.00000000000E+00 0.  1.
         12    1    6    6    0    0 -0.38600389194E+02 -0.59617319735E+02 -0.26052336271E+01  0.71070402423E+02  0.00000000000E+00 0. -1.
         -5    1    3    3    0  503  0.70901295082E+02 -0.21837243291E+01 -0.11072007328E+03  0.13157806399E+03  0.47000000000E+01 0.  1.
         11    1    4    4    0    0 -0.38236765217E+02 -0.27618762223E+01 -0.61965055081E+02  0.72865260761E+02  0.00000000000E+00 0. -1.
        -12    1    4    4    0    0 -0.13575485824E+01  0.58663274611E+02 -0.24979104899E+02  0.63774433810E+02  0.00000000000E+00 0.  1.
</event>
<event>
12    1  0.8297444E-002  0.1892620E+03  0.7818608E-02  0.1159460E+00
         21   -1    0    0  503  502  0.00000000000E+00  0.00000000000E+00  0.13007546634E+03  0.13007546634E+03  0.00000000000E+00 0. -1.
         21   -1    0    0  501  503 -0.00000000000E+00 -0.00000000000E+00 -0.35885768916E+03  0.35885768916E+03  0.00000000000E+00 0.  1.
          6    2    1    2  501    0 -0.70290130503E+02 -0.34199902714E+02 -0.23411975356E+03  0.30105176598E+03  0.17236522561E+03 0.  0.
         24    2    3    3    0    0  0.16374932551E+01 -0.56319762962E+02 -0.19022015773E+03  0.21380421134E+03  0.79711575653E+02 0.  0.
         -6    2    1    2    0  502  0.70290130503E+02  0.34199902714E+02  0.53375307471E+01  0.18788138952E+03  0.17076472558E+03 0.  0.
        -24    2    5    5    0    0  0.67618836422E+02  0.62332502513E+02 -0.44698754055E+02  0.13022465722E+03  0.80640156403E+02 0.  0.
          5    1    3    3  501    0 -0.71927623758E+02  0.22119860249E+02 -0.43899595826E+02  0.87247554639E+02  0.47000000000E+01 0. -1.
        -11    1    4    4    0    0  0.38148368303E+02 -0.33111809772E+02 -0.13149493008E+03  0.14086378735E+03  0.00000000000E+00 0.  1.
         12    1    4    4    0    0 -0.36510875048E+02 -0.23207953190E+02 -0.58725227650E+02  0.72940423982E+02  0.00000000000E+00 0. -1.
         -5    1    5    5    0  502  0.26712940809E+01 -0.28132599800E+02  0.50036284802E+02  0.57656732307E+02  0.47000000000E+01 0.  1.
         13    1    6    6    0    0  0.17535740449E+01  0.10688713000E+02  0.21127785268E+02  0.23742512881E+02  0.00000000000E+00 0. -1.
        -14    1    6    6    0    0  0.65865262377E+02  0.51643789513E+02 -0.65826539323E+02  0.10648214434E+03  0.00000000000E+00 0.  1.
</event>
<event>
12    1  0.8297444E-002  0.1804681E+03  0.7818608E-02  0.1169004E+00
         21   -1    0    0  501  502  0.00000000000E+00  0.00000000000E+00  0.11492589978E+04  0.11492589978E+04  0.00000000000E+00 0. -1.
         21   -1    0    0  502  503 -0.00000000000E+00 -0.00000000000E+00 -0.27561310766E+02  0.27561310766E+02  0.00000000000E+00 0.  1.
         -6    2    1    2    0  503 -0.38088698705E+02 -0.19177609480E+02  0.51340551202E+03  0.54420028875E+03  0.17535736319E+03 0.  0.
        -24    2    3    3    0    0 -0.42741481388E+02  0.54467742226E+02  0.33339142347E+03  0.34959184008E+03  0.79189925091E+02 0.  0.
          6    2    1    2  501    0  0.38088698705E+02  0.19177609480E+02  0.60829217498E+03  0.63262001978E+03  0.16843452620E+03 0.  0.
         24    2    5    5    0    0  0.41593116730E+01  0.56752665366E+02  0.53257694307E+03  0.54141708961E+03  0.79095510186E+02 0.  0.
          5    1    5    5  501    0  0.33929387032E+02 -0.37575055886E+02  0.75715231904E+02  0.91202930169E+02  0.47000000000E+01 0. -1.
        -13    1    6    6    0    0  0.12879835137E+02 -0.13869282907E+02  0.47228838597E+02  0.50880353347E+02  0.00000000000E+00 0.  1.
         14    1    6    6    0    0 -0.87205234638E+01  0.70621948273E+02  0.48534810448E+03  0.49053673627E+03  0.00000000000E+00 0. -1.
         -5    1    3    3    0  503  0.46527826837E+01 -0.73645351707E+02  0.18001408856E+03  0.19460844867E+03  0.47000000000E+01 0.  1.
         13    1    4    4    0    0 -0.11900264711E+02  0.73801458079E+01  0.24098325597E+03  0.24138975229E+03  0.00000000000E+00 0. -1.
        -14    1    4    4    0    0 -0.30841216677E+02  0.47087596418E+02  0.92408167499E+02  0.10820208779E+03  0.00000000000E+00 0.  1.
</event>
<event>
12    1  0.8297444E-002  0.2100897E+03  0.7818608E-02  0.1141894E+00
         21   -1    0    0  503  502  0.00000000000E+00  0.00000000000E+00  0.12959104261E+04  0.12959104261E+04  0.00000000000E+00 0.  1.
         21   -1    0    0  501  503 -0.00000000000E+00 -0.00000000000E+00 -0.37003777240E+02  0.37003777240E+02  0.00000000000E+00 0. -1.
          6    2    1    2  501    0  0.10813732598E+02 -0.11650510949E+03  0.43411622503E+03  0.48228062169E+03  0.17449161546E+03 0.  0.
         24    2    3    3    0    0 -0.55662494755E+02 -0.35263881125E+02  0.24003778942E+03  0.26158228648E+03  0.80407074433E+02 0.  0.
         -6    2    1    2    0  502 -0.10813732598E+02  0.11650510949E+03  0.82479042387E+03  0.85063358170E+03  0.17206937454E+03 0.  0.
        -24    2    5    5    0    0 -0.50594116846E+02  0.18777450458E+02  0.48265554457E+03  0.49256719128E+03  0.82180934035E+02 0.  0.
          5    1    3    3  501    0  0.66476227353E+02 -0.81241228369E+02  0.19407843561E+03  0.22069833520E+03  0.47000000000E+01 0. -1.
        -11    1    4    4    0    0 -0.43697335293E+01 -0.33674764228E+02  0.17733512490E+03  0.18055700164E+03  0.00000000000E+00 0.  1.
         12    1    4    4    0    0 -0.51292761226E+02 -0.15891168973E+01  0.62702664516E+02  0.81025284844E+02  0.00000000000E+00 0. -1.
         -5    1    5    5    0  502  0.39780384248E+02  0.97727659036E+02  0.34213487931E+03  0.35806639042E+03  0.47000000000E+01 0.  1.
         13    1    6    6    0    0  0.10536947306E+02 -0.18439600686E+02  0.54880550600E+02  0.58846588399E+02  0.00000000000E+00 0. -1.
        -14    1    6    6    0    0 -0.61131064153E+02  0.37217051144E+02  0.42777499397E+03  0.43372060288E+03  0.00000000000E+00 0.  1.
</event>
<event>
12    1  0.8297444E-002  0.1799693E+03  0.7818608E-02  0.1168148E+00
         21   -1    0    0  503  502  0.00000000000E+00  0.00000000000E+00  0.41669727083E+02  0.41669727083E+02  0.00000000000E+00 0. -1.
         21   -1    0    0  501  503 -0.00000000000E+00 -0.00000000000E+00 -0.19829785638E+04  0.19829785638E+04  0.00000000000E+00 0. -1.
          6    2    1    2  501    0  0.14948587114E+02 -0.48990233042E+02 -0.17632193951E+04  0.17723802064E+04  0.17252668732E+03 0.  0.
         24    2    3    3    0    0 -0.33080533517E+02 -0.60380489247E+02 -0.15478190421E+04  0.15513464162E+04  0.78687933069E+02 0.  0.
         -6    2    1    2    0  502 -0.14948587114E+02  0.48990233042E+02 -0.17808944164E+03  0.25226808444E+03  0.17117194283E+03 0.  0.
        -24    2    5    5    0    0 -0.43353818231E+02 -0.25523751915E+02 -0.11726224370E+03  0.15186276029E+03  0.82345908803E+02 0.  0.
          5    1    3    3  501    0  0.48029120631E+02  0.11390256205E+02 -0.21540035294E+03  0.22103379020E+03  0.47000000000E+01 0. -1.
        -13    1    4    4    0    0 -0.16770041952E+02  0.16661267944E+02 -0.24094464165E+03  0.24210153345E+03  0.00000000000E+00 0.  1.
         14    1    4    4    0    0 -0.16310491565E+02 -0.77041757191E+02 -0.13068744005E+04  0.13092448828E+04  0.00000000000E+00 0. -1.
         -5    1    5    5    0  502  0.28405231118E+02  0.74513984957E+02 -0.60827197942E+02  0.10040532415E+03  0.47000000000E+01 0.  1.
         11    1    6    6    0    0 -0.45659466132E+02  0.29137877055E+01 -0.18997170843E+02  0.49539575153E+02  0.00000000000E+00 0. -1.
        -12    1    6    6    0    0  0.23056479007E+01 -0.28437539621E+02 -0.98265072859E+02  0.10232318513E+03  0.00000000000E+00 0.  1.
</event>
<event>
12    1  0.8297444E-002  0.2621634E+03  0.7818608E-02  0.1106187E+00
         21   -1    0    0  501  502  0.00000000000E+00  0.00000000000E+00  0.37014586853E+03  0.37014586853E+03  0.00000000000E+00 0. -1.
         21   -1    0    0  502  503 -0.00000000000E+00 -0.00000000000E+00 -0.22769046535E+03  0.22769046535E+03  0.00000000000E+00 0.  1.
         -6    2    1    2    0  503 -0.19180251592E+03 -0.38619619365E+02 -0.59327709545E+02  0.26879258057E+03  0.17449926686E+03 0.  0.
        -24    2    3    3    0    0 -0.11520826734E+03 -0.91663795954E+02 -0.25973747368E+02  0.16972219964E+03  0.80347950464E+02 0.  0.
          6    2    1    2  501    0  0.19180251592E+03  0.38619619365E+02  0.20178311272E+03  0.32904375332E+03  0.17109554905E+03 0.  0.
         24    2    5    5    0    0  0.17103123793E+03  0.86212907366E+02  0.17533424261E+03  0.27057838081E+03  0.76067166283E+02 0.  0.
          5    1    5    5  501    0  0.20771277994E+02 -0.47593288001E+02  0.26448870107E+02  0.58465372506E+02  0.47000000000E+01 0. -1.
        -11    1    6    6    0    0  0.13397178501E+03  0.38146289371E+02  0.89930479007E+02  0.16580431124E+03  0.00000000000E+00 0.  1.
         12    1    6    6    0    0  0.37059452913E+02  0.48066617995E+02  0.85403763605E+02  0.10477406957E+03  0.00000000000E+00 0. -1.
         -5    1    3    3    0  503 -0.76594248577E+02  0.53044176589E+02 -0.33353962177E+02  0.99070380932E+02  0.47000000000E+01 0.  1.
         13    1    4    4    0    0 -0.11008403286E+03 -0.42567510014E+02 -0.23165780884E+02  0.12027942718E+03  0.00000000000E+00 0. -1.
        -14    1    4    4    0    0 -0.51242344852E+01 -0.49096285940E+02 -0.28079664837E+01  0.49442772454E+02  0.00000000000E+00 0.  1.
</event>
<event>
12    1  0.8297444E-002  0.3337440E+03  0.7818608E-02  0.1069589E+00
         21   -1    0    0  503  502  0.00000000000E+00  0.00000000000E+00  0.65476084985E+03  0.65476084985E+03  0.00000000000E+00 0.  1.
         21   -1    0    0  501  503 -0.00000000000E+00 -0.00000000000E+00 -0.20999384597E+03  0.20999384597E+03  0.00000000000E+00 0. -1.
          6    2    1    2  501    0 -0.10813808989E+03  0.26321985937E+03  0.32663665965E+02  0.33445832227E+03  0.17267574644E+03 0.  0.
         24    2    3    3    0    0 -0.62403130965E+02  0.11273579445E+03  0.79033255999E+02  0.17041756775E+03  0.78691687869E+02 0.  0.
         -6    2    1    2    0  502  0.10813808989E+03 -0.26321985937E+03  0.41210333791E+03  0.53029637355E+03  0.17437471671E+03 0.  0.
        -24    2    5    5    0    0  0.53934582591E+02 -0.60536937249E+02  0.89817629797E+02  0.14570756095E+03  0.81177747716E+02 0.  0.
          5    1    3    3  501    0 -0.45734958929E+02  0.15048406492E+03 -0.46369590034E+02  0.16404075452E+03  0.47000000000E+01 0. -1.
        -11    1    4    4    0    0  0.18939459198E+02  0.22511893652E+02  0.17710098784E+02  0.34338550777E+02  0.00000000000E+00 0.  1.
         12    1    4    4    0    0 -0.81342590163E+02  0.90223900802E+02  0.61323157215E+02  0.13607901698E+03  0.00000000000E+00 0. -1.
         -5    1    5    5    0  502  0.54203507303E+02 -0.20268292212E+03  0.32228570812E+03  0.38458881260E+03  0.47000000000E+01 0.  1.
         13    1    6    6    0    0  0.73500559125E+02 -0.60352242874E+02  0.72662685239E+02  0.11968538440E+03  0.00000000000E+00 0. -1.
        -14    1    6    6    0    0 -0.19565976534E+02 -0.18469437496E+00  0.17154944557E+02  0.26022176552E+02  0.00000000000E+00 0.  1.
</event>
<event>
12    1  0.8297444E-002  0.4666522E+03  0.7818608E-02  0.1022910E+00
         21   -1    0    0  501  502  0.00000000000E+00  0.00000000000E+00  0.23584587721E+03  0.23584587721E+03  0.00000000000E+00 0. -1.
         21   -1    0    0  502  503 -0.00000000000E+00 -0.00000000000E+00 -0.10754935273E+04  0.10754935273E+04  0.00000000000E+00 0.  1.
         -6    2    1    2    0  503 -0.31888110006E+03 -0.29341899270E+03 -0.66714156872E+03  0.81382297868E+03  0.17161033377E+03 0.  0.
        -24    2    3    3    0    0 -0.17653270926E+03 -0.15625663456E+03 -0.48422447174E+03  0.54445829796E+03  0.79884703762E+02 0.  0.
          6    2    1    2  501    0  0.31888110006E+03  0.29341899270E+03 -0.17250608135E+03  0.49751642581E+03  0.17315999710E+03 0.  0.
         24    2    5    5    0    0  0.21434297489E+03  0.17063620483E+03 -0.38810062325E+02  0.28799184942E+03  0.79833947090E+02 0.  0.
          5    1    5    5  501    0  0.10453812517E+03  0.12278278787E+03 -0.13369601903E+03  0.20952457640E+03  0.47000000000E+01 0. -1.
        -11    1    6    6    0    0  0.10664794056E+03  0.12842012739E+03 -0.31979854126E+01  0.16696029305E+03  0.00000000000E+00 0.  1.
         12    1    6    6    0    0  0.10769503433E+03  0.42216077441E+02 -0.35612076912E+02  0.12103155637E+03  0.00000000000E+00 0. -1.
         -5    1    3    3    0  503 -0.14234839080E+03 -0.13716235814E+03 -0.18291709698E+03  0.26936468072E+03  0.47000000000E+01 0.  1.
         11    1    4    4    0    0 -0.72881050763E+02 -0.16207267104E+02 -0.14882764344E+03  0.16650522670E+03  0.00000000000E+00 0. -1.
        -12    1    4    4    0    0 -0.10365165850E+03 -0.14004936746E+03 -0.33539682830E+03  0.37795307125E+03  0.00000000000E+00 0.  1.
</event>
<event>
12    1  0.8297444E-002  0.1949196E+03  0.7818608E-02  0.1154261E+00
         21   -1    0    0  501  502  0.00000000000E+00  0.00000000000E+00  0.11176529727E+03  0.11176529727E+03  0.00000000000E+00 0. -1.
         21   -1    0    0  502  503 -0.00000000000E+00 -0.00000000000E+00 -0.44819718725E+03  0.44819718725E+03  0.00000000000E+00 0.  1.
         -6    2    1    2    0  503  0.39368087526E+01 -0.90603234725E+02 -0.30688608984E+03  0.36355566459E+03  0.17253754522E+03 0.  0.
        -24    2    3    3    0    0 -0.10220178463E+02  0.10864984095E+02 -0.92398764326E+02  0.12580974449E+03  0.84071756446E+02 0.  0.
          6    2    1    2  501    0 -0.39368087526E+01  0.90603234725E+02 -0.29545800137E+02  0.19640681992E+03  0.17169228288E+03 0.  0.
         24    2    5    5    0    0 -0.73244736356E+01 -0.15108719483E+02  0.11396628811E+02  0.82895296171E+02  0.80373040633E+02 0.  0.
          5    1    5    5  501    0  0.33876648831E+01  0.10571195421E+03 -0.40942428948E+02  0.11351152375E+03  0.47000000000E+01 0. -1.
        -11    1    6    6    0    0 -0.35973942020E+01 -0.50778061418E+01 -0.34863033441E+02  0.35414071511E+02  0.00000000000E+00 0.  1.
         12    1    6    6    0    0 -0.37270794337E+01 -0.10030913342E+02  0.46259662252E+02  0.47481224660E+02  0.00000000000E+00 0. -1.
         -5    1    3    3    0  503  0.14156987216E+02 -0.10146821882E+03 -0.21448732552E+03  0.23774592010E+03  0.47000000000E+01 0.  1.
         11    1    4    4    0    0  0.18003915593E+02 -0.18972940157E+02 -0.16597287044E+01  0.26208169227E+02  0.00000000000E+00 0. -1.
        -12    1    4    4    0    0 -0.28224094056E+02  0.29837924252E+02 -0.90739035622E+02  0.99601575261E+02  0.00000000000E+00 0.  1.
</event>
<event>
12    1  0.8297444E-002  0.3363570E+03  0.7818608E-02  0.1068359E+00
         21   -1    0    0  501  502  0.00000000000E+00  0.00000000000E+00  0.17479538838E+04  0.17479538838E+04  0.00000000000E+00 0.  1.
         21   -1    0    0  502  503 -0.00000000000E+00 -0.00000000000E+00 -0.86199355019E+02  0.86199355019E+02  0.00000000000E+00 0. -1.
         -6    2    1    2    0  503 -0.19273383309E+03 -0.21563339836E+03  0.12886194001E+04  0.13317929287E+04  0.17172173338E+03 0.  0.
        -24    2    3    3    0    0 -0.19965976005E+03 -0.13729897686E+03  0.10461880243E+04  0.10768825287E+04  0.80321663356E+02 0.  0.
          6    2    1    2  501    0  0.19273383309E+03  0.21563339836E+03  0.37313512865E+03  0.50236031009E+03  0.17173224512E+03 0.  0.
         24    2    5    5    0    0  0.10587496571E+02  0.10109286880E+03  0.15141156822E+03  0.19336152681E+03  0.64275608530E+02 0.  0.
          5    1    5    5  501    0  0.18214633652E+03  0.11454052955E+03  0.22172356044E+03  0.30899878329E+03  0.47000000000E+01 0. -1.
        -13    1    6    6    0    0 -0.15157497637E+01  0.86921990065E+02  0.15156203343E+03  0.17472486896E+03  0.00000000000E+00 0.  1.
         14    1    6    6    0    0  0.12103246334E+02  0.14170878739E+02 -0.15046521159E+00  0.18636657850E+02  0.00000000000E+00 0. -1.
         -5    1    3    3    0  503  0.69259269517E+01 -0.78334421499E+02  0.24243137581E+03  0.25491040001E+03  0.47000000000E+01 0.  1.
         13    1    4    4    0    0 -0.89513997771E+02 -0.22953560572E+02  0.29648984511E+03  0.31055732159E+03  0.00000000000E+00 0. -1.
        -14    1    4    4    0    0 -0.11014576228E+03 -0.11434541629E+03  0.74969817916E+03  0.76632520708E+03  0.00000000000E+00 0.  1.
</event>
<event>
12    1  0.8297444E-002  0.2373196E+03  0.7818608E-02  0.1121641E+00
         21   -1    0    0  503  502  0.00000000000E+00  0.00000000000E+00  0.44646528364E+03  0.44646528364E+03  0.00000000000E+00 0.  1.
         21   -1    0    0  501  503 -0.00000000000E+00 -0.00000000000E+00 -0.23471077351E+03  0.23471077351E+03  0.00000000000E+00 0. -1.
          6    2    1    2  501    0 -0.62106616001E+02  0.14993983381E+03 -0.12588941433E+03  0.26864237491E+03  0.17315136571E+03 0.  0.
         24    2    3    3    0    0 -0.49785683553E+02  0.23926104000E+02 -0.10119618071E+03  0.13955670079E+03  0.78640530304E+02 0.  0.
         -6    2    1    2    0  502  0.62106616001E+02 -0.14993983381E+03  0.33764392446E+03  0.41253368224E+03  0.17274673293E+03 0.  0.
        -24    2    5    5    0    0  0.67562906835E+02 -0.13580302674E+03  0.35196982504E+03  0.39115748400E+03  0.78193421049E+02 0.  0.
          5    1    3    3  501    0 -0.12320932448E+02  0.12601372981E+03 -0.24693233618E+02  0.12908567412E+03  0.47000000000E+01 0. -1.
        -11    1    4    4    0    0  0.21027556105E+02 -0.86636484714E+00 -0.20796761517E+02  0.29587395854E+02  0.00000000000E+00 0.  1.
         12    1    4    4    0    0 -0.70813239658E+02  0.24792468847E+02 -0.80399419193E+02  0.10996930494E+03  0.00000000000E+00 0. -1.
         -5    1    5    5    0  502 -0.54562908343E+01 -0.14136807068E+02 -0.14325900579E+02  0.21376198239E+02  0.47000000000E+01 0.  1.
         11    1    6    6    0    0 -0.76018474838E+01 -0.62192231678E+02  0.16692328185E+03  0.17829482266E+03  0.00000000000E+00 0. -1.
        -12    1    6    6    0    0  0.75164754319E+02 -0.73610795060E+02  0.18504654320E+03  0.21286266133E+03  0.00000000000E+00 0.  1.
</event>
<event>
12    1  0.8297444E-002  0.1737019E+03  0.7818608E-02  0.1174430E+00
         21   -1    0    0  501  502  0.00000000000E+00  0.00000000000E+00  0.15633434183E+03  0.15633434183E+03  0.00000000000E+00 0. -1.
         21   -1    0    0  502  503 -0.00000000000E+00 -0.00000000000E+00 -0.20902516186E+03  0.20902516186E+03  0.00000000000E+00 0. -1.
         -6    2    1    2    0  503 -0.12084483739E+02  0.59791391790E+01 -0.79639250065E+02  0.19108836142E+03  0.17317784750E+03 0.  0.
        -24    2    3    3    0    0 -0.74975535390E+02 -0.11095457226E+00 -0.61211100722E+02  0.12510305769E+03  0.79263061851E+02 0.  0.
          6    2    1    2  501    0  0.12084483739E+02 -0.59791391790E+01  0.26948430041E+02  0.17427114227E+03  0.17164623006E+03 0.  0.
         24    2    5    5    0    0 -0.22630743885E+02 -0.31940631057E+02 -0.39086738956E+02  0.95139103033E+02  0.77403625772E+02 0.  0.
          5    1    5    5  501    0  0.34715227624E+02  0.25961491878E+02  0.66035168998E+02  0.79132039239E+02  0.47000000000E+01 0. -1.
        -11    1    6    6    0    0  0.95317506522E-01  0.25026705460E+02 -0.15433716078E+02  0.29403140369E+02  0.00000000000E+00 0.  1.
         12    1    6    6    0    0 -0.22726061392E+02 -0.56967336516E+02 -0.23653022879E+02  0.65735962665E+02  0.00000000000E+00 0. -1.
         -5    1    3    3    0  503  0.62891051651E+02  0.60900937512E+01 -0.18428149343E+02  0.65985303727E+02  0.47000000000E+01 0.  1.
         11    1    4    4    0    0 -0.25355427276E+02 -0.10633178182E+02 -0.68543462576E+02  0.73852342092E+02  0.00000000000E+00 0. -1.
        -12    1    4    4    0    0 -0.49620108114E+02  0.10522223610E+02  0.73323618542E+01  0.51250715598E+02  0.00000000000E+00 0.  1.
</event>
<event>
12    1  0.8297444E-002  0.2141648E+03  0.7818608E-02  0.1138371E+00
         21   -1    0    0  503  502  0.00000000000E+00  0.00000000000E+00  0.78994211050E+02  0.78994211050E+02  0.00000000000E+00 0. -1.
         21   -1    0    0  501  503 -0.00000000000E+00 -0.00000000000E+00 -0.58259425534E+03  0.58259425534E+03  0.00000000000E+00 0. -1.
          6    2    1    2  501    0  0.65396641989E+02  0.11119021102E+03 -0.27462884034E+03  0.34806911982E+03  0.17056121604E+03 0.  0.
         24    2    3    3    0    0  0.10294004849E+02 -0.69340133839E+01 -0.12405393375E+03  0.14885936729E+03  0.81336865394E+02 0.  0.
         -6    2    1    2    0  502 -0.65396641989E+02 -0.11119021102E+03 -0.22897120395E+03  0.31351934657E+03  0.17095784458E+03 0.  0.
        -24    2    5    5    0    0 -0.48835363471E+02 -0.14339514733E+03 -0.16079616006E+03  0.23618009083E+03  0.83537831019E+02 0.  0.
          5    1    3    3  501    0  0.55102637141E+02  0.11812422441E+03 -0.15057490659E+03  0.19920975253E+03  0.47000000000E+01 0. -1.
        -11    1    4    4    0    0 -0.41721239501E+01 -0.31372751790E+02 -0.12971371307E+02  0.34203985831E+02  0.00000000000E+00 0.  1.
         12    1    4    4    0    0  0.14466128799E+02  0.24438738406E+02 -0.11108256245E+03  0.11465538146E+03  0.00000000000E+00 0. -1.
         -5    1    5    5    0  502 -0.16561278519E+02  0.32204936306E+02 -0.68175043891E+02  0.77339255738E+02  0.47000000000E+01 0.  1.
         13    1    6    6    0    0 -0.25505021410E+01 -0.67961442513E+01 -0.59484199506E+02  0.59925475624E+02  0.00000000000E+00 0. -1.
        -14    1    6    6    0    0 -0.46284861330E+02 -0.13659900308E+03 -0.10131196056E+03  0.17625461521E+03  0.00000000000E+00 0.  1.
</event>
<event>
12    1  0.8297444E-002  0.1929041E+03  0.7818608E-02  0.1159594E+00
         21   -1    0    0  501  502  0.00000000000E+00  0.00000000000E+00  0.24997831495E+03  0.24997831495E+03  0.00000000000E+00 0.  1.
         21   -1    0    0  502  503 -0.00000000000E+00 -0.00000000000E+00 -0.29272740051E+03  0.29272740051E+03  0.00000000000E+00 0.  1.
         -6    2    1    2    0  503  0.12079240980E+02 -0.39675523779E+02 -0.21982759668E+03  0.29246563163E+03  0.18839298865E+03 0.  0.
        -24    2    3    3    0    0  0.15999024263E+02 -0.82771862370E+02 -0.22001888622E+03  0.24893649550E+03  0.80336283942E+02 0.  0.
          6    2    1    2  501    0 -0.12079240980E+02  0.39675523779E+02  0.17707851112E+03  0.25024008383E+03  0.17188148593E+03 0.  0.
         24    2    5    5    0    0 -0.32968051986E+00  0.91228951510E+02  0.11794282437E+03  0.17077356554E+03  0.83248246740E+02 0.  0.
          5    1    5    5  501    0 -0.11749560460E+02 -0.51553427731E+02  0.59135686746E+02  0.79466518287E+02  0.47000000000E+01 0. -1.
        -13    1    6    6    0    0  0.15328967150E+02  0.29404036154E+02  0.98753618434E+02  0.10417222149E+03  0.00000000000E+00 0.  1.
         14    1    6    6    0    0 -0.15658647670E+02  0.61824915356E+02  0.19189205937E+02  0.66601344056E+02  0.00000000000E+00 0. -1.
         -5    1    3    3    0  503 -0.39197832830E+01  0.43096338590E+02  0.19128954034E+00  0.43529136134E+02  0.47000000000E+01 0.  1.
         11    1    4    4    0    0  0.62362245883E+01 -0.63095557418E+02 -0.59590193983E+02  0.87011097465E+02  0.00000000000E+00 0. -1.
        -12    1    4    4    0    0  0.97627996748E+01 -0.19676304952E+02 -0.16042869224E+03  0.16192539803E+03  0.00000000000E+00 0.  1.
</event>
<event>
12    1  0.8297444E-002  0.2879482E+03  0.7818608E-02  0.1091494E+00
         21   -1    0    0  501  502  0.00000000000E+00  0.00000000000E+00  0.14340598007E+03  0.14340598007E+03  0.00000000000E+00 0. -1.
         21   -1    0    0  502  503 -0.00000000000E+00 -0.00000000000E+00 -0.14295099774E+04  0.14295099774E+04  0.00000000000E+00 0. -1.
         -6    2    1    2    0  503 -0.16480658756E+03  0.16095912829E+03 -0.12501088903E+04  0.12827267223E+04  0.17189111185E+03 0.  0.
        -24    2    3    3    0    0 -0.15561784876E+03  0.58038179975E+02 -0.79555848262E+03  0.81655581201E+03  0.79150171641E+02 0.  0.
          6    2    1    2  501    0  0.16480658756E+03 -0.16095912829E+03 -0.35995107054E+02  0.29018923514E+03  0.17275732163E+03 0.  0.
         24    2    5    5    0    0  0.99046544975E+01  0.59182314333E+01  0.22871717606E+02  0.54965819853E+02  0.48631247587E+02 0.  0.
          5    1    5    5  501    0  0.15490193306E+03 -0.16687735972E+03 -0.58866824660E+02  0.23522341529E+03  0.47000000000E+01 0. -1.
        -11    1    6    6    0    0  0.54287621710E+01  0.27417847593E+02  0.14253485220E+02  0.31374697867E+02  0.00000000000E+00 0.  1.
         12    1    6    6    0    0  0.44758923265E+01 -0.21499616159E+02  0.86182323859E+01  0.23591121986E+02  0.00000000000E+00 0. -1.
         -5    1    3    3    0  503 -0.91887388046E+01  0.10292094832E+03 -0.45455040766E+03  0.46617091032E+03  0.47000000000E+01 0.  1.
         11    1    4    4    0    0 -0.13698351298E+03  0.28211920565E+02 -0.71658091234E+03  0.73010177319E+03  0.00000000000E+00 0. -1.
        -12    1    4    4    0    0 -0.18634335773E+02  0.29826259410E+02 -0.78977570284E+02  0.86454038819E+02  0.00000000000E+00 0.  1.
</event>
<event>
12    1  0.8297444E-002  0.2550410E+03  0.7818608E-02  0.1110221E+00
         21   -1    0    0  501  502  0.00000000000E+00  0.00000000000E+00  0.55913898072E+02  0.55913898072E+02  0.00000000000E+00 0.  1.
         21   -1    0    0  502  503 -0.00000000000E+00 -0.00000000000E+00 -0.11779336494E+04  0.11779336494E+04  0.00000000000E+00 0.  1.
         -6    2    1    2    0  503  0.18269649434E+03  0.45330619570E+02 -0.48775058496E+03  0.55022244688E+03  0.17149703733E+03 0.  0.
        -24    2    3    3    0    0  0.19279060812E+02  0.35123382526E+02 -0.23405403806E+03  0.24823987591E+03  0.72363036627E+02 0.  0.
          6    2    1    2  501    0 -0.18269649434E+03 -0.45330619570E+02 -0.63426916636E+03  0.68362510058E+03  0.17208436488E+03 0.  0.
         24    2    5    5    0    0 -0.13676742144E+03 -0.14600274030E+02 -0.59353249910E+03  0.61481085835E+03  0.82420073339E+02 0.  0.
          5    1    5    5  501    0 -0.45929072895E+02 -0.30730345541E+02 -0.40736667259E+02  0.68814242229E+02  0.47000000000E+01 0. -1.
        -11    1    6    6    0    0 -0.13985267305E+03  0.54238943106E+01 -0.52635253723E+03  0.54464225161E+03  0.00000000000E+00 0.  1.
         12    1    6    6    0    0  0.30852516121E+01 -0.20024168340E+02 -0.67179961865E+02  0.70168606737E+02  0.00000000000E+00 0. -1.
         -5    1    3    3    0  503  0.16341743352E+03  0.10207237044E+02 -0.25369654690E+03  0.30198257098E+03  0.47000000000E+01 0.  1.
         13    1    4    4    0    0 -0.21946422292E+02  0.27523875057E+02 -0.63449842108E+02  0.72560951021E+02  0.00000000000E+00 0. -1.
        -14    1    4    4    0    0  0.41225483104E+02  0.75995074689E+01 -0.17060419596E+03  0.17567892488E+03  0.00000000000E+00 0.  1.
</event>
<event>
12    1  0.8297444E-002  0.2239661E+03  0.7818608E-02  0.1131320E+00
         21   -1    0    0  501  502  0.00000000000E+00  0.00000000000E+00  0.55900803757E+03  0.55900803757E+03  0.00000000000E+00 0. -1.
         21   -1    0    0  502  503 -0.00000000000E+00 -0.00000000000E+00 -0.10890792979E+03  0.10890792979E+03  0.00000000000E+00 0. -1.
         -6    2    1    2    0  503  0.12954136101E+03  0.56820096615E+02  0.82884801782E+02  0.23881099170E+03  0.17364133091E+03 0.  0.
        -24    2    3    3    0    0  0.34771218155E+02  0.88167576141E+02  0.56141585868E+02  0.13536373922E+03  0.78669594739E+02 0.  0.
          6    2    1    2  501    0 -0.12954136101E+03 -0.56820096615E+02  0.36721530600E+03  0.42910497566E+03  0.17109795903E+03 0.  0.
         24    2    5    5    0    0 -0.14803300808E+02  0.19743192891E+02  0.13754700643E+03  0.16115651497E+03  0.80270243299E+02 0.  0.
          5    1    5    5  501    0 -0.11473806020E+03 -0.76563289506E+02  0.22966829956E+03  0.26794846068E+03  0.47000000000E+01 0. -1.
        -13    1    6    6    0    0  0.14584181365E+02 -0.69531230519E+01 -0.18064835756E+01  0.16257541302E+02  0.00000000000E+00 0.  1.
         14    1    6    6    0    0 -0.29387482173E+02  0.26696315943E+02  0.13935349001E+03  0.14489897367E+03  0.00000000000E+00 0. -1.
         -5    1    3    3    0  503  0.94770142851E+02 -0.31347479526E+02  0.26743215915E+02  0.10344725248E+03  0.47000000000E+01 0.  1.
         13    1    4    4    0    0  0.31316828074E+02  0.20533981309E+02  0.56329519630E+02  0.67641724482E+02  0.00000000000E+00 0. -1.
        -14    1    4    4    0    0  0.34543900808E+01  0.67633594831E+02 -0.18793376273E+00  0.67722014735E+02  0.00000000000E+00 0.  1.
</event>
<event>
12    1  0.8297444E-002  0.2418728E+03  0.7818608E-02  0.1119243E+00
         21   -1    0    0  501  502  0.00000000000E+00  0.00000000000E+00  0.31757261041E+02  0.31757261041E+02  0.00000000000E+00 0. -1.
         21   -1    0    0  502  503 -0.00000000000E+00 -0.00000000000E+00 -0.18155486198E+04  0.18155486198E+04  0.00000000000E+00 0.  1.
         -6    2    1    2    0  503  0.67037794940E+02 -0.14918295580E+03 -0.85161504138E+03  0.88529692663E+03  0.17819329207E+03 0.  0.
        -24    2    3    3    0    0  0.50962431262E+02 -0.48692699973E+02 -0.20810667258E+03  0.23377423358E+03  0.79836437073E+02 0.  0.
          6    2    1    2  501    0 -0.67037794940E+02  0.14918295580E+03 -0.93217631737E+03  0.96200895421E+03  0.17250774203E+03 0.  0.
         24    2    5    5    0    0 -0.11053294929E+03  0.10466830198E+03 -0.60531571405E+03  0.62924277976E+03  0.79789572501E+02 0.  0.
          5    1    5    5  501    0  0.43495154354E+02  0.44514653820E+02 -0.32686060332E+03  0.33276617445E+03  0.47000000000E+01 0. -1.
        -11    1    6    6    0    0 -0.26795463183E+02  0.80541531218E+00 -0.21695316447E+03  0.21860311323E+03  0.00000000000E+00 0.  1.
         12    1    6    6    0    0 -0.83737486111E+02  0.10386288666E+03 -0.38836254958E+03  0.41063966653E+03  0.00000000000E+00 0. -1.
         -5    1    3    3    0  503  0.16075363678E+02 -0.10049025582E+03 -0.64350836880E+03  0.65152269304E+03  0.47000000000E+01 0.  1.
         13    1    4    4    0    0 -0.17475450965E+02 -0.30580477539E+02 -0.79939266098E+02  0.87354697969E+02  0.00000000000E+00 0. -1.
        -14    1    4    4    0    0  0.68437882227E+02 -0.18112222434E+02 -0.12816740648E+03  0.14641953561E+03  0.00000000000E+00 0.  1.
</event>
<event>
12    1  0.8297444E-002  0.1914400E+03  0.7818608E-02  0.1157389E+00
         21   -1    0    0  503  502  0.00000000000E+00  0.00000000000E+00  0.14088318237E+04  0.14088318237E+04  0.00000000000E+00 0. -1.
         21   -1    0    0  501  503 -0.00000000000E+00 -0.00000000000E+00 -0.70614676361E+02  0.70614676361E+02  0.00000000000E+00 0. -1.
          6    2    1    2  501    0 -0.52515672063E+02 -0.64033565609E+02  0.79717376253E+02  0.20646930286E+03  0.17151244739E+03 0.  0.
         24    2    3    3    0    0 -0.18431819107E+01  0.22097349133E+02  0.64276407624E+02  0.10524307481E+03  0.80330305986E+02 0.  0.
         -6    2    1    2    0  502  0.52515672063E+02  0.64033565609E+02  0.12584997711E+04  0.12729771972E+04  0.17260091959E+03 0.  0.
        -24    2    5    5    0    0  0.78669110567E+02  0.27853364232E+02  0.11444660360E+04  0.11504260159E+04  0.81932115139E+02 0.  0.
          5    1    3    3  501    0 -0.50672490153E+02 -0.86130914742E+02  0.15440968629E+02  0.10122622805E+03  0.47000000000E+01 0. -1.
        -13    1    4    4    0    0 -0.37778171308E+02  0.27833030641E+02  0.35038120847E+02  0.58562255203E+02  0.00000000000E+00 0.  1.
         14    1    4    4    0    0  0.35934989397E+02 -0.57356815083E+01  0.29238286777E+02  0.46680819605E+02  0.00000000000E+00 0. -1.
         -5    1    5    5    0  502 -0.26153438504E+02  0.36180201376E+02  0.11403373503E+03  0.12255118132E+03  0.47000000000E+01 0.  1.
         13    1    6    6    0    0 -0.16921868627E+02  0.74144672498E+01  0.23373159654E+03  0.23446062182E+03  0.00000000000E+00 0. -1.
        -14    1    6    6    0    0  0.95590979195E+02  0.20438896983E+02  0.91073443948E+03  0.91596539404E+03  0.00000000000E+00 0.  1.
</event>
<event>
12    1  0.8297444E-002  0.2181693E+03  0.7818608E-02  0.1135264E+00
         21   -1    0    0  501  502  0.00000000000E+00  0.00000000000E+00  0.98899838493E+02  0.98899838493E+02  0.00000000000E+00 0.  1.
         21   -1    0    0  502  503 -0.00000000000E+00 -0.00000000000E+00 -0.56054519432E+03  0.56054519432E+03  0.00000000000E+00 0. -1.
         -6    2    1    2    0  503 -0.11076360400E+03  0.74137336430E+02 -0.35491586929E+03  0.41660909612E+03  0.17272215861E+03 0.  0.
        -24    2    3    3    0    0 -0.56290071082E+02  0.28605382518E+02 -0.32311843418E+03  0.33867520430E+03  0.79426264452E+02 0.  0.
          6    2    1    2  501    0  0.11076360400E+03 -0.74137336430E+02 -0.10672948654E+03  0.24283593670E+03  0.17266495948E+03 0.  0.
         24    2    5    5    0    0  0.87732769772E+00  0.75489246983E+01 -0.30057000415E+02  0.85837850388E+02  0.80043471422E+02 0.  0.
          5    1    5    5  501    0  0.10988627630E+03 -0.81686261129E+02 -0.76672486128E+02  0.15699808631E+03  0.47000000000E+01 0. -1.
        -11    1    6    6    0    0  0.38139310730E+00 -0.14807085069E+02  0.23512166048E+02  0.27788795965E+02  0.00000000000E+00 0.  1.
         12    1    6    6    0    0  0.49593459042E+00  0.22356009767E+02 -0.53569166463E+02  0.58049054422E+02  0.00000000000E+00 0. -1.
         -5    1    3    3    0  503 -0.54473532915E+02  0.45531953912E+02 -0.31797435103E+02  0.77933891821E+02  0.47000000000E+01 0.  1.
         11    1    4    4    0    0  0.74394984971E+01 -0.11253329428E+02 -0.14114448178E+03  0.14178768740E+03  0.00000000000E+00 0. -1.
        -12    1    4    4    0    0 -0.63729569579E+02  0.39858711946E+02 -0.18197395240E+03  0.19688751690E+03  0.00000000000E+00 0.  1.
</event>
<event>
12    1  0.8297444E-002  0.1952555E+03  0.7818608E-02  0.1154975E+00
         21   -1    0    0  503  502  0.00000000000E+00  0.00000000000E+00  0.64339028901E+02  0.64339028901E+02  0.00000000000E+00 0.  1.
         21   -1    0    0  501  503 -0.00000000000E+00 -0.00000000000E+00 -0.84129496417E+03  0.84129496417E+03  0.00000000000E+00 0.  1.
          6    2    1    2  501    0 -0.81167405252E+02 -0.40230386183E+02 -0.63879900645E+03  0.66644355351E+03  0.16696169537E+03 0.  0.
         24    2    3    3    0    0 -0.47735484555E+02 -0.69414111582E+02 -0.58519595974E+03  0.59669572368E+03  0.80588336522E+02 0.  0.
         -6    2    1    2    0  502  0.81167405252E+02  0.40230386183E+02 -0.13815692882E+03  0.23919043956E+03  0.17296848774E+03 0.  0.
        -24    2    5    5    0    0  0.75008542394E+00 -0.33410092522E+02 -0.51911625548E+02  0.10008541532E+03  0.78774847402E+02 0.  0.
          5    1    3    3  501    0 -0.33431920697E+02  0.29183725398E+02 -0.53603046711E+02  0.69747829832E+02  0.47000000000E+01 0. -1.
        -13    1    4    4    0    0 -0.51949786938E+02 -0.32506746860E+02 -0.18732053662E+03  0.19708996015E+03  0.00000000000E+00 0.  1.
         14    1    4    4    0    0  0.42143023826E+01 -0.36907364722E+02 -0.39787542312E+03  0.39960576352E+03  0.00000000000E+00 0. -1.
         -5    1    5    5    0  502  0.80417319828E+02  0.73640478706E+02 -0.86245303268E+02  0.13910502424E+03  0.47000000000E+01 0.  1.
         11    1    6    6    0    0  0.27762834260E+02 -0.96453262686E+01 -0.56626360243E+02  0.63799310022E+02  0.00000000000E+00 0. -1.
        -12    1    6    6    0    0 -0.27012748836E+02 -0.23764766254E+02  0.47147346949E+01  0.36286105302E+02  0.00000000000E+00 0.  1.
</event>
<event>
12    1  0.8297444E-002  0.2870048E+03  0.7818608E-02  0.1091997E+00
         21   -1    0    0  501  502  0.00000000000E+00  0.00000000000E+00  0.17898418524E+03  0.17898418524E+03  0.00000000000E+00 0. -1.
         21   -1    0    0  502  503 -0.00000000000E+00 -0.00000000000E+00 -0.20232789555E+04  0.20232789555E+04  0.00000000000E+00 0. -1.
         -6    2    1    2    0  503  0.16176489767E+03  0.16326071888E+03 -0.18900502581E+04  0.19116339285E+04  0.17097471726E+03 0.  0.
        -24    2    3    3    0    0  0.16533615722E+03  0.14226876209E+03 -0.12563479942E+04  0.12775565946E+04  0.78511936573E+02 0.  0.
          6    2    1    2  501    0 -0.16176489767E+03 -0.16326071888E+03  0.45755487781E+02  0.29062921231E+03  0.17190063972E+03 0.  0.
         24    2    5    5    0    0 -0.67949872940E+02 -0.16131237708E+03  0.37374709995E+02  0.19630327559E+03  0.80617856759E+02 0.  0.
          5    1    5    5  501    0 -0.93815024732E+02 -0.19483417977E+01  0.83807777865E+01  0.94325936717E+02  0.47000000000E+01 0. -1.
        -13    1    6    6    0    0 -0.44456403193E+02 -0.20785126915E+02  0.19088554219E+02  0.52657062090E+02  0.00000000000E+00 0.  1.
         14    1    6    6    0    0 -0.23493469747E+02 -0.14052725017E+03  0.18286155775E+02  0.14364621350E+03  0.00000000000E+00 0. -1.
         -5    1    3    3    0  503 -0.35712595459E+01  0.20991956792E+02 -0.63370226387E+03  0.63407733391E+03  0.47000000000E+01 0.  1.
         11    1    4    4    0    0  0.82434009424E+02  0.12068500516E+03 -0.78896990942E+03  0.80239251888E+03  0.00000000000E+00 0. -1.
        -12    1    4    4    0    0  0.82902147794E+02  0.21583756928E+02 -0.46737808478E+03  0.47516407567E+03  0.00000000000E+00 0.  1.
</event>
<event>
12    1  0.8297444E-002  0.2103860E+03  0.7818608E-02  0.1141473E+00
         21   -1    0    0  501  502  0.00000000000E+00  0.00000000000E+00  0.30658869980E+03  0.30658869980E+03  0.00000000000E+00 0.  1.
         21   -1    0    0  502  503 -0.00000000000E+00 -0.00000000000E+00 -0.23784400721E+03  0.23784400721E+03  0.00000000000E+00 0. -1.
         -6    2    1    2    0  503 -0.12007552829E+03 -0.40705605988E+01 -0.13689612447E+03  0.25100359093E+03  0.17270654824E+03 0.  0.
        -24    2    3    3    0    0 -0.65846447765E+02  0.66626066154E+02 -0.66469914390E+02  0.13733412592E+03  0.75283632013E+02 0.  0.
          6    2    1    2  501    0  0.12007552829E+03  0.40705605988E+01  0.20564081706E+03  0.29342911609E+03  0.17139952908E+03 0.  0.
         24    2    5    5    0    0  0.40814433814E+02  0.50182133939E+02  0.52251080265E+02  0.11465803440E+03  0.78944441788E+02 0.  0.
          5    1    5    5  501    0  0.79261094474E+02 -0.46111573340E+02  0.15338973680E+03  0.17877108169E+03  0.47000000000E+01 0. -1.
        -13    1    6    6    0    0  0.18256182620E+02  0.14752104565E+02  0.66329152880E+02  0.70359571593E+02  0.00000000000E+00 0.  1.
         14    1    6    6    0    0  0.22558251195E+02  0.35430029374E+02 -0.14078072616E+02  0.44298462806E+02  0.00000000000E+00 0. -1.
         -5    1    3    3    0  503 -0.54229080524E+02 -0.70696626753E+02 -0.70426210082E+02  0.11366946501E+03  0.47000000000E+01 0.  1.
         13    1    4    4    0    0 -0.61378589432E+02  0.10039510529E+02 -0.44470128961E+02  0.76457278150E+02  0.00000000000E+00 0. -1.
        -14    1    4    4    0    0 -0.44678583327E+01  0.56586555625E+02 -0.21999785429E+02  0.60876847771E+02  0.00000000000E+00 0.  1.
</event>
<event>
12    1  0.8297444E-002  0.1804664E+03  0.7818608E-02  0.1167817E+00
         21   -1    0    0  503  502  0.00000000000E+00  0.00000000000E+00  0.10877118973E+03  0.10877118973E+03  0.00000000000E+00 0. -1.
         21   -1    0    0  501  503 -0.00000000000E+00 -0.00000000000E+00 -0.30121076011E+03  0.30121076011E+03  0.00000000000E+00 0. -1.
          6    2    1    2  501    0 -0.44827954891E+02 -0.36754886646E+02 -0.12202163890E+03  0.21626357582E+03  0.16887920723E+03 0.  0.
         24    2    3    3    0    0  0.34960996918E+02 -0.41137646996E+02 -0.83526752717E+02  0.12744110298E+03  0.79686504523E+02 0.  0.
         -6    2    1    2    0  502  0.44827954891E+02  0.36754886646E+02 -0.70417931486E+02  0.19371837402E+03  0.17090247548E+03 0.  0.
        -24    2    5    5    0    0 -0.18599372120E+02  0.36173915248E+02 -0.86220592791E+02  0.12818077074E+03  0.85684482715E+02 0.  0.
          5    1    3    3  501    0 -0.79788951810E+02  0.43827603504E+01 -0.38494886186E+02  0.88822472842E+02  0.47000000000E+01 0. -1.
        -11    1    4    4    0    0  0.26576442885E+02  0.16595978226E+02 -0.53072290896E+02  0.61631176125E+02  0.00000000000E+00 0.  1.
         12    1    4    4    0    0  0.83845540338E+01 -0.57733625222E+02 -0.30454461821E+02  0.65809926853E+02  0.00000000000E+00 0. -1.
         -5    1    5    5    0  502  0.63427327011E+02  0.58097139800E+00  0.15802661304E+02  0.65537603281E+02  0.47000000000E+01 0.  1.
         11    1    6    6    0    0  0.22465419760E+02  0.41297282859E+02 -0.68690316590E+02  0.83237733329E+02  0.00000000000E+00 0. -1.
        -12    1    6    6    0    0 -0.41064791880E+02 -0.51233676112E+01 -0.17530276201E+02  0.44943037409E+02  0.00000000000E+00 0.  1.
</event>
<event>
12    1  0.8297444E-002  0.2822085E+03  0.7818608E-02  0.1094550E+00
         21   -1    0    0  503  502  0.00000000000E+00  0.00000000000E+00  0.11951507668E+04  0.11951507668E+04  0.00000000000E+00 0. -1.
         21   -1    0    0  501  503 -0.00000000000E+00 -0.00000000000E+00 -0.20673046536E+03  0.20673046536E+03  0.00000000000E+00 0. -1.
          6    2    1    2  501    0  0.19990775101E+03 -0.10000317119E+03 -0.83150714772E+02  0.29377200453E+03  0.17153485395E+03 0.  0.
         24    2    3    3    0    0  0.18911638328E+03 -0.52594066199E+02 -0.18445265544E+02  0.21269819857E+03  0.79806977328E+02 0.  0.
         -6    2    1    2    0  502 -0.19990775101E+03  0.10000317119E+03  0.10715710162E+04  0.11081092276E+04  0.17227267462E+03 0.  0.
        -24    2    5    5    0    0 -0.16863995235E+03  0.11275546278E+03  0.65821107096E+03  0.69334564376E+03  0.79581027056E+02 0.  0.
          5    1    3    3  501    0  0.10791367729E+02 -0.47409104995E+02 -0.64705449228E+02  0.81073805965E+02  0.47000000000E+01 0. -1.
        -11    1    4    4    0    0  0.21919485464E+02  0.19149358980E+02 -0.91947580112E+01  0.30523849155E+02  0.00000000000E+00 0.  1.
         12    1    4    4    0    0  0.16719689781E+03 -0.71743425179E+02 -0.92505075333E+01  0.18217434941E+03  0.00000000000E+00 0. -1.
         -5    1    5    5    0  502 -0.31267798659E+02 -0.12752291581E+02  0.41335994522E+03  0.41476358385E+03  0.47000000000E+01 0.  1.
         11    1    6    6    0    0 -0.16690445389E+03  0.10337898200E+03  0.65415869192E+03  0.68298455682E+03  0.00000000000E+00 0. -1.
        -12    1    6    6    0    0 -0.17354984555E+01  0.93764807716E+01  0.40523790468E+01  0.10361086936E+02  0.00000000000E+00 0.  1.
</event>
<event>
12    1  0.8297444E-002  0.2355535E+03  0.7818608E-02  0.1122845E+00
         21   -1    0    0  501  502  0.00000000000E+00  0.00000000000E+00  0.15579052183E+03  0.15579052183E+03  0.00000000000E+00 0.  1.
         21   -1    0    0  502  503 -0.00000000000E+00 -0.00000000000E+00 -0.40434410743E+03  0.40434410743E+03  0.00000000000E+00 0.  1.
         -6    2    1    2    0  503  0.10990055302E+03  0.11655591403E+03 -0.27183936229E+02  0.23711684624E+03  0.17269053167E+03 0.  0.
        -24    2    3    3    0    0  0.13413805705E+03  0.11736753921E+03 -0.52171322163E+02  0.20198032972E+03  0.79410636135E+02 0.  0.
          6    2    1    2  501    0 -0.10990055302E+03 -0.11655591403E+03 -0.22136964937E+03  0.32301778302E+03  0.17225723159E+03 0.  0.
         24    2    5    5    0    0 -0.11398621562E+03 -0.13624161599E+03 -0.14194738338E+03  0.24095557591E+03  0.79723864895E+02 0.  0.
          5    1    5    5  501    0  0.40856626007E+01  0.19685701960E+02 -0.79422265996E+02  0.82062207114E+02  0.47000000000E+01 0. -1.
        -13    1    6    6    0    0 -0.36935977911E+02 -0.64512529351E+02 -0.10649851352E+03  0.12987711996E+03  0.00000000000E+00 0.  1.
         14    1    6    6    0    0 -0.77050237713E+02 -0.71729086638E+02 -0.35448869860E+02  0.11107845595E+03  0.00000000000E+00 0. -1.
         -5    1    3    3    0  503 -0.24237504024E+02 -0.81162517731E+00  0.24987385933E+02  0.35136516511E+02  0.47000000000E+01 0.  1.
         13    1    4    4    0    0  0.13329616519E+02  0.50021932521E+02  0.56380060145E+01  0.52073597163E+02  0.00000000000E+00 0. -1.
        -14    1    4    4    0    0  0.12080844053E+03  0.67345606685E+02 -0.57809328177E+02  0.14990673256E+03  0.00000000000E+00 0.  1.
</event>
<event>
12    1  0.8297444E-002  0.2155592E+03  0.7818608E-02  0.1137873E+00
         21   -1    0    0  501  502  0.00000000000E+00  0.00000000000E+00  0.30606968476E+03  0.30606968476E+03  0.00000000000E+00 0.  1.
         21   -1    0    0  502  503 -0.00000000000E+00 -0.00000000000E+00 -0.48634182087E+03  0.48634182087E+03  0.00000000000E+00 0. -1.
         -6    2    1    2    0  503 -0.96572247396E+02  0.76049741881E+02 -0.42007758588E+03  0.47215565700E+03  0.17707632272E+03 0.  0.
        -24    2    3    3    0    0 -0.17481498107E+02  0.37767696747E+02 -0.78075860297E+02  0.11901527145E+03  0.79603977183E+02 0.  0.
          6    2    1    2  501    0  0.96572247396E+02 -0.76049741881E+02  0.23980544978E+03  0.32025584863E+03  0.17305314972E+03 0.  0.
         24    2    5    5    0    0  0.98027419102E+02 -0.80989858090E+02  0.25922321362E+03  0.29962427512E+03  0.80058102345E+02 0.  0.
          5    1    5    5  501    0 -0.14551717062E+01  0.49401162094E+01 -0.19417763841E+02  0.20631573509E+02  0.47000000000E+01 0. -1.
        -13    1    6    6    0    0  0.47643970765E+02 -0.87265627172E+02  0.17564966889E+03  0.20183667610E+03  0.00000000000E+00 0.  1.
         14    1    6    6    0    0  0.50383448337E+02  0.62757690816E+01  0.83573544732E+02  0.97787599025E+02  0.00000000000E+00 0. -1.
         -5    1    3    3    0  503 -0.79090749289E+02  0.38282045134E+02 -0.34200172559E+03  0.35314038555E+03  0.47000000000E+01 0.  1.
         11    1    4    4    0    0 -0.36908268972E+02  0.41444844578E+02 -0.81846184722E+02  0.98887276300E+02  0.00000000000E+00 0. -1.
        -12    1    4    4    0    0  0.19426770865E+02 -0.36771478315E+01  0.37703244248E+01  0.20127995148E+02  0.00000000000E+00 0.  1.
</event>
<event>
12    1  0.8297444E-002  0.1745858E+03  0.7818608E-02  0.1173258E+00
         21   -1    0    0  503  502  0.00000000000E+00  0.00000000000E+00  0.42565864953E+03  0.42565864953E+03  0.00000000000E+00 0. -1.
         21   -1    0    0  501  503 -0.00000000000E+00 -0.00000000000E+00 -0.31262601336E+03  0.31262601336E+03  0.00000000000E+00 0. -1.
          6    2    1    2  501    0  0.18641600611E+02 -0.21264221358E+02 -0.26770819172E+03  0.31960582537E+03  0.17228038574E+03 0.  0.
         24    2    3    3    0    0  0.24647287828E+02 -0.77032793096E+02 -0.13764236274E+03  0.17788281473E+03  0.78455947821E+02 0.  0.
         -6    2    1    2    0  502 -0.18641600611E+02  0.21264221358E+02  0.38074082789E+03  0.41867883752E+03  0.17183921142E+03 0.  0.
        -24    2    5    5    0    0 -0.54092157869E+02  0.29169504276E+02  0.12817755983E+03  0.16347395927E+03  0.80730582766E+02 0.  0.
          5    1    3    3  501    0 -0.60056872171E+01  0.55768571738E+02 -0.13006582899E+03  0.14172301063E+03  0.47000000000E+01 0. -1.
        -13    1    4    4    0    0 -0.18452153164E+02 -0.69039915571E+01 -0.27969878349E+01  0.19898999894E+02  0.00000000000E+00 0.  1.
         14    1    4    4    0    0  0.43099440992E+02 -0.70128801539E+02 -0.13484537490E+03  0.15798381484E+03  0.00000000000E+00 0. -1.
         -5    1    5    5    0  502  0.35450557258E+02 -0.79052829181E+01  0.25256326806E+03  0.25520487825E+03  0.47000000000E+01 0.  1.
         11    1    6    6    0    0  0.73131855030E+01  0.38365532597E+02  0.43325172380E+02  0.58330672338E+02  0.00000000000E+00 0. -1.
        -12    1    6    6    0    0 -0.61405343372E+02 -0.91960283208E+01  0.84852387452E+02  0.10514328694E+03  0.00000000000E+00 0.  1.
</event>
<event>
12    1  0.8297444E-002  0.2671879E+03  0.7818608E-02  0.1103128E+00
         21   -1    0    0  501  502  0.00000000000E+00  0.00000000000E+00  0.10975500341E+03  0.10975500341E+03  0.00000000000E+00 0. -1.
         21   -1    0    0  502  503 -0.00000000000E+00 -0.00000000000E+00 -0.65932860757E+03  0.65932860757E+03  0.00000000000E+00 0. -1.
         -6    2    1    2    0  503 -0.15875640902E+03 -0.12459868046E+03 -0.32736577319E+03  0.42157002761E+03  0.17269774215E+03 0.  0.
        -24    2    3    3    0    0 -0.10846735056E+03 -0.14846728023E+03 -0.19724338032E+03  0.27996273055E+03  0.75276025253E+02 0.  0.
          6    2    1    2  501    0  0.15875640902E+03  0.12459868046E+03 -0.22220783098E+03  0.34751358337E+03  0.17510266103E+03 0.  0.
         24    2    5    5    0    0  0.13792150124E+03  0.15395639215E+03 -0.21723502130E+03  0.31086951900E+03  0.81999342530E+02 0.  0.
          5    1    5    5  501    0  0.20834907776E+02 -0.29357711685E+02 -0.49728096745E+01  0.36644064369E+02  0.47000000000E+01 0. -1.
        -13    1    6    6    0    0  0.55181564579E+02  0.11610221383E+03 -0.10234829318E+03  0.16431646979E+03  0.00000000000E+00 0.  1.
         14    1    6    6    0    0  0.82739936666E+02  0.37854178310E+02 -0.11488672812E+03  0.14655304921E+03  0.00000000000E+00 0. -1.
         -5    1    3    3    0  503 -0.50289058459E+02  0.23868599767E+02 -0.13012239286E+03  0.14160729706E+03  0.47000000000E+01 0.  1.
         11    1    4    4    0    0 -0.72080210053E+02 -0.36240571701E+02 -0.82286181845E+02  0.11523867164E+03  0.00000000000E+00 0. -1.
        -12    1    4    4    0    0 -0.36387140508E+02 -0.11222670853E+03 -0.11495719848E+03  0.16472405891E+03  0.00000000000E+00 0.  1.
</event>
<event>
12    1  0.8297444E-002  0.1898513E+03  0.7818608E-02  0.1158879E+00
         21   -1    0    0  501  502  0.00000000000E+00  0.00000000000E+00  0.83008306890E+02  0.83008306890E+02  0.00000000000E+00 0. -1.
         21   -1    0    0  502  503 -0.00000000000E+00 -0.00000000000E+00 -0.49672464405E+03  0.49672464405E+03  0.00000000000E+00 0. -1.
         -6    2    1    2    0  503 -0.71514625299E+02 -0.32184912909E+02 -0.31141354984E+03  0.36407263107E+03  0.17152338447E+03 0.  0.
        -24    2    3    3    0    0 -0.77070812732E+02 -0.81732067322E+02 -0.21216634371E+03  0.25290658565E+03  0.79543338241E+02 0.  0.
          6    2    1    2  501    0  0.71514625299E+02  0.32184912909E+02 -0.10230278732E+03  0.21566031987E+03  0.17289679876E+03 0.  0.
         24    2    5    5    0    0  0.29643376944E+02  0.32915879583E+02 -0.13361450531E+03  0.16316032525E+03  0.82500125943E+02 0.  0.
          5    1    5    5  501    0  0.41871248356E+02 -0.73096667398E+00  0.31311717994E+02  0.52499994618E+02  0.47000000000E+01 0. -1.
        -13    1    6    6    0    0 -0.34138031473E+01 -0.21362082528E+02 -0.93087993099E+01  0.23550931329E+02  0.00000000000E+00 0.  1.
         14    1    6    6    0    0  0.33057180091E+02  0.54277962111E+02 -0.12430570600E+03  0.13960939392E+03  0.00000000000E+00 0. -1.
         -5    1    3    3    0  503  0.55561874328E+01  0.49547154413E+02 -0.99247206130E+02  0.11116604542E+03  0.47000000000E+01 0.  1.
         13    1    4    4    0    0 -0.16202667351E+02 -0.42787522207E+02 -0.15243937476E+03  0.15915734813E+03  0.00000000000E+00 0. -1.
        -14    1    4    4    0    0 -0.60868145381E+02 -0.38944545116E+02 -0.59726968953E+02  0.93749237526E+02  0.00000000000E+00 0.  1.
</event>
<event>
12    1  0.8297444E-002  0.2045050E+03  0.7818608E-02  0.1146019E+00
         21   -1    0    0  501  502  0.00000000000E+00  0.00000000000E+00  0.15480630737E+04  0.15480630737E+04  0.00000000000E+00 0.  1.
         21   -1    0    0  502  503 -0.00000000000E+00 -0.00000000000E+00 -0.34883923299E+02  0.34883923299E+02  0.00000000000E+00 0. -1.
         -6    2    1    2    0  503  0.94089519137E+02 -0.57737949741E+02  0.38047930431E+03  0.43195695334E+03  0.17215051577E+03 0.  0.
        -24    2    3    3    0    0  0.44649908728E+02 -0.70509830293E+02  0.35791617068E+03  0.37593391335E+03  0.79101652679E+02 0.  0.
          6    2    1    2  501    0 -0.94089519137E+02  0.57737949741E+02  0.11326998461E+04  0.11509900437E+04  0.17199601976E+03 0.  0.
         24    2    5    5    0    0 -0.14425504597E+02  0.88910596469E+01  0.83527873727E+03  0.83919879962E+03  0.79226953924E+02 0.  0.
          5    1    5    5  501    0 -0.79664014540E+02  0.48846890094E+02  0.29742110882E+03  0.31179124404E+03  0.47000000000E+01 0. -1.
        -13    1    6    6    0    0 -0.35092300984E+02  0.14616051203E+02  0.75931636950E+03  0.76026735267E+03  0.00000000000E+00 0.  1.
         14    1    6    6    0    0  0.20666796387E+02 -0.57249915557E+01  0.75962367767E+02  0.78931446952E+02  0.00000000000E+00 0. -1.
         -5    1    3    3    0  503  0.49439610410E+02  0.12771880552E+02  0.22563133627E+02  0.56023039987E+02  0.47000000000E+01 0.  1.
         13    1    4    4    0    0  0.45421879338E+02 -0.69067743192E+02  0.18070691813E+03  0.19871711182E+03  0.00000000000E+00 0. -1.
        -14    1    4    4    0    0 -0.77197061044E+00 -0.14420871011E+01  0.17720925255E+03  0.17721680153E+03  0.00000000000E+00 0.  1.
</event>
<event>
12    1  0.8297444E-002  0.2122608E+03  0.7818608E-02  0.1140007E+00
         21   -1    0    0  501  502  0.00000000000E+00  0.00000000000E+00  0.22410697681E+03  0.22410697681E+03  0.00000000000E+00 0.  1.
         21   -1    0    0  502  503 -0.00000000000E+00 -0.00000000000E+00 -0.22125242182E+03  0.22125242182E+03  0.00000000000E+00 0. -1.
         -6    2    1    2    0  503 -0.11733372923E+03  0.38845342129E+02 -0.67613044145E+02  0.22276935709E+03  0.17256447519E+03 0.  0.
        -24    2    3    3    0    0 -0.14441967980E+03  0.58359676161E+02 -0.76994658598E+02  0.18777560564E+03  0.71194135334E+02 0.  0.
          6    2    1    2  501    0  0.11733372923E+03 -0.38845342129E+02  0.70467599143E+02  0.22259004154E+03  0.17118551178E+03 0.  0.
         24    2    5    5    0    0  0.14001559258E+03 -0.61153585768E+02  0.38872236726E+02  0.17750698945E+03  0.81569315910E+02 0.  0.
          5    1    5    5  501    0 -0.22681863348E+02  0.22308243639E+02  0.31595362417E+02  0.45083052087E+02  0.47000000000E+01 0. -1.
        -13    1    6    6    0    0  0.46066686222E+02  0.79677875198E+01  0.38981265724E+02  0.60870060743E+02  0.00000000000E+00 0.  1.
         14    1    6    6    0    0  0.93948906361E+02 -0.69121373288E+02 -0.10902899796E+00  0.11663692871E+03  0.00000000000E+00 0. -1.
         -5    1    3    3    0  503  0.27085950565E+02 -0.19514334032E+02  0.93816144534E+01  0.34993751449E+02  0.47000000000E+01 0.  1.
         13    1    4    4    0    0 -0.66884259579E+02 -0.39574246809E+01 -0.97551938083E+01  0.67707674571E+02  0.00000000000E+00 0. -1.
        -14    1    4    4    0    0 -0.77535420221E+02  0.62317100842E+02 -0.67239464790E+02  0.12006793107E+03  0.00000000000E+00 0.  1.
</event>
<event>
12    1  0.8297444E-002  0.1777412E+03  0.7818608E-02  0.1170587E+00
         21   -1    0    0  501  502  0.00000000000E+00  0.00000000000E+00  0.26670371717E+03  0.26670371717E+03  0.00000000000E+00 0. -1.
         21   -1    0    0  502  503 -0.00000000000E+00 -0.00000000000E+00 -0.43479525907E+03  0.43479525907E+03  0.00000000000E+00 0. -1.
         -6    2    1    2    0  503  0.75516656699E+01 -0.35955223807E+02 -0.38410833172E+03  0.42323888049E+03  0.17390265580E+03 0.  0.
        -24    2    3    3    0    0 -0.21386675707E+02 -0.86084438596E+02 -0.24460784238E+03  0.27213347920E+03  0.79722728742E+02 0.  0.
          6    2    1    2  501    0 -0.75516656699E+01  0.35955223807E+02  0.21601678982E+03  0.27826009575E+03  0.17150982953E+03 0.  0.
         24    2    5    5    0    0  0.29563946365E+02  0.15064141427E+02  0.36020718039E+02  0.93233930467E+02  0.79335479961E+02 0.  0.
          5    1    5    5  501    0 -0.37115612035E+02  0.20891082381E+02  0.17999607179E+03  0.18502616528E+03  0.47000000000E+01 0. -1.
        -13    1    6    6    0    0  0.19507014845E+02  0.46211314812E+02  0.33683411626E+02  0.60420041903E+02  0.00000000000E+00 0.  1.
         14    1    6    6    0    0  0.10056931520E+02 -0.31147173385E+02  0.23373064138E+01  0.32813888565E+02  0.00000000000E+00 0. -1.
         -5    1    3    3    0  503  0.28938341377E+02  0.50129214789E+02 -0.13950048933E+03  0.15110540130E+03  0.47000000000E+01 0.  1.
         11    1    4    4    0    0 -0.41557010059E+02 -0.23151993026E+02 -0.14493639422E+03  0.15254362731E+03  0.00000000000E+00 0. -1.
        -12    1    4    4    0    0  0.20170334351E+02 -0.62932445571E+02 -0.99671448167E+02  0.11958985188E+03  0.00000000000E+00 0.  1.
</event>
<event>
12    1  0.8297444E-002  0.1797681E+03  0.7818608E-02  0.1168080E+00
         21   -1    0    0  503  502  0.00000000000E+00  0.00000000000E+00  0.11005788978E+04  0.11005788978E+04  0.00000000000E+00 0.  1.
         21   -1    0    0  501  503 -0.00000000000E+00 -0.00000000000E+00 -0.29371459112E+02  0.29371459112E+02  0.00000000000E+00 0.  1.
          6    2    1    2  501    0  0.84159131353E+01  0.46389187351E+02  0.51358996942E+03  0.54407167739E+03  0.17325284746E+03 0.  0.
         24    2    3    3    0    0  0.74675418378E+02  0.43470738122E+02  0.35422929833E+03  0.37139639580E+03  0.70645338405E+02 0.  0.
         -6    2    1    2    0  502 -0.84159131353E+01 -0.46389187351E+02  0.55761746928E+03  0.58587867953E+03  0.17347564898E+03 0.  0.
        -24    2    5    5    0    0  0.23665915583E+02 -0.57180978597E+02  0.53524705601E+03  0.54503468509E+03  0.82119772950E+02 0.  0.
          5    1    3    3  501    0 -0.66259505242E+02  0.29184492287E+01  0.15936067109E+03  0.17267528159E+03  0.47000000000E+01 0. -1.
        -11    1    4    4    0    0  0.87825238725E+01  0.22946460943E+02  0.21079330224E+03  0.21222037854E+03  0.00000000000E+00 0.  1.
         12    1    4    4    0    0  0.65892894505E+02  0.20524277179E+02  0.14343599608E+03  0.15917601727E+03  0.00000000000E+00 0. -1.
         -5    1    5    5    0  502 -0.32081828718E+02  0.10791791246E+02  0.22370413271E+02  0.40843994444E+02  0.47000000000E+01 0.  1.
         11    1    6    6    0    0  0.12231772778E+02 -0.11456999571E+01  0.36939502101E+03  0.36959925655E+03  0.00000000000E+00 0. -1.
        -12    1    6    6    0    0  0.11434142806E+02 -0.56035278640E+02  0.16585203500E+03  0.17543542854E+03  0.00000000000E+00 0.  1.
</event>
<event>
12    1  0.8297444E-002  0.2266332E+03  0.7818608E-02  0.1129076E+00
         21   -1    0    0  501  502  0.00000000000E+00  0.00000000000E+00  0.22356188180E+03  0.22356188180E+03  0.00000000000E+00 0.  1.
         21   -1    0    0  502  503 -0.00000000000E+00 -0.00000000000E+00 -0.34811174323E+03  0.34811174323E+03  0.00000000000E+00 0.  1.
         -6    2    1    2    0  503 -0.14556267590E+02 -0.14525748285E+03 -0.22910330354E+03  0.32208592943E+03  0.17303005806E+03 0.  0.
        -24    2    3    3    0    0 -0.25249670029E+02 -0.87482129739E+02 -0.45432499232E+02  0.12918856128E+03  0.79592107137E+02 0.  0.
          6    2    1    2  501    0  0.14556267590E+02  0.14525748285E+03  0.10455344212E+03  0.24958769560E+03  0.17335216839E+03 0.  0.
         24    2    5    5    0    0  0.50179256449E+02  0.11199362691E+03  0.13678854234E+02  0.14636094436E+03  0.78574071655E+02 0.  0.
          5    1    5    5  501    0 -0.35622988859E+02  0.33263855941E+02  0.90874587886E+02  0.10322675124E+03  0.47000000000E+01 0. -1.
        -11    1    6    6    0    0  0.10735127184E+02 -0.22208528494E+01 -0.18331376037E+02  0.21359178131E+02  0.00000000000E+00 0.  1.
         12    1    6    6    0    0  0.39444129265E+02  0.11421447975E+03  0.32010230271E+02  0.12500176623E+03  0.00000000000E+00 0. -1.
         -5    1    3    3    0  503  0.10693402439E+02 -0.57775353107E+02 -0.18367080431E+03  0.19289736815E+03  0.47000000000E+01 0.  1.
         13    1    4    4    0    0  0.12846523334E+02  0.82788728529E+01  0.25691705575E+01  0.15497533186E+02  0.00000000000E+00 0. -1.
        -14    1    4    4    0    0 -0.38096193363E+02 -0.95761002592E+02 -0.48001669790E+02  0.11369102809E+03  0.00000000000E+00 0.  1.
</event>
<event>
12    1  0.8297444E-002  0.1783052E+03  0.7818608E-02  0.1169629E+00
         21   -1    0    0  501  502  0.00000000000E+00  0.00000000000E+00  0.33119586810E+03  0.33119586810E+03  0.00000000000E+00 0.  1.
         21   -1    0    0  502  503 -0.00000000000E+00 -0.00000000000E+00 -0.99277835985E+02  0.99277835985E+02  0.00000000000E+00 0.  1.
         -6    2    1    2    0  503  0.44302684610E+02 -0.85531071557E+01  0.74812693097E+02  0.19336408726E+03  0.17250173241E+03 0.  0.
        -24    2    3    3    0    0  0.52190997647E+02  0.54637191052E+02  0.69221825224E+02  0.12926582617E+03  0.78796382199E+02 0.  0.
          6    2    1    2  501    0 -0.44302684610E+02  0.85531071557E+01  0.15710533902E+03  0.23710961683E+03  0.17176437157E+03 0.  0.
         24    2    5    5    0    0  0.13633646303E+02  0.98521003653E+01  0.15911847931E+03  0.17893360324E+03  0.80097463872E+02 0.  0.
          5    1    5    5  501    0 -0.57936330914E+02 -0.12989932096E+01 -0.20131402896E+01  0.58176013587E+02  0.47000000000E+01 0. -1.
        -11    1    6    6    0    0 -0.97506792499E+01  0.37595360050E+02  0.11732886332E+03  0.12359024642E+03  0.00000000000E+00 0.  1.
         12    1    6    6    0    0  0.23384325553E+02 -0.27743259685E+02  0.41789615991E+02  0.55343356821E+02  0.00000000000E+00 0. -1.
         -5    1    3    3    0  503 -0.78883130363E+01 -0.63190298208E+02  0.55908678724E+01  0.64098261082E+02  0.47000000000E+01 0.  1.
         11    1    4    4    0    0  0.44439657188E+02  0.66892156063E+02  0.27163469532E+02  0.84777931980E+02  0.00000000000E+00 0. -1.
        -12    1    4    4    0    0  0.77513404582E+01 -0.12254965011E+02  0.42058355692E+02  0.44487894194E+02  0.00000000000E+00 0.  1.
</event>
<event>
12    1  0.8297444E-002  0.1883346E+03  0.7818608E-02  0.1160062E+00
         21   -1    0    0  503  502  0.00000000000E+00  0.00000000000E+00  0.12857364508E+04  0.12857364508E+04  0.00000000000E+00 0. -1.
         21   -1    0    0  501  503 -0.00000000000E+00 -0.00000000000E+00 -0.28293596582E+02  0.28293596582E+02  0.00000000000E+00 0. -1.
          6    2    1    2  501    0  0.59437382057E+02 -0.53883144038E+02  0.52138431958E+03  0.55435684902E+03  0.17039281603E+03 0.  0.
         24    2    3    3    0    0 -0.14689912316E+01 -0.47971811254E+02  0.45263639793E+03  0.46219993450E+03  0.80284606939E+02 0.  0.
         -6    2    1    2    0  502 -0.59437382057E+02  0.53883144038E+02  0.73605853463E+03  0.75967319835E+03  0.16995589515E+03 0.  0.
        -24    2    5    5    0    0  0.27565542981E+02  0.27413019795E+02  0.38170612234E+03  0.39380724129E+03  0.88731317166E+02 0.  0.
          5    1    3    3  501    0  0.60906373289E+02 -0.59113327838E+01  0.68747921644E+02  0.92156914514E+02  0.47000000000E+01 0. -1.
        -11    1    4    4    0    0  0.33690504792E+02 -0.11255210869E+02  0.27970082941E+03  0.28194730688E+03  0.00000000000E+00 0.  1.
         12    1    4    4    0    0 -0.35159496024E+02 -0.36716600385E+02  0.17293556852E+03  0.18025262762E+03  0.00000000000E+00 0. -1.
         -5    1    5    5    0  502 -0.87002925038E+02  0.26470124243E+02  0.35435241229E+03  0.36586595706E+03  0.47000000000E+01 0.  1.
         11    1    6    6    0    0 -0.24827311181E+02  0.13123060141E+02  0.24662044107E+03  0.24821412539E+03  0.00000000000E+00 0. -1.
        -12    1    6    6    0    0  0.52392854161E+02  0.14289959653E+02  0.13508568127E+03  0.14559311590E+03  0.00000000000E+00 0.  1.
</event>
<event>
12    1  0.8297444E-002  0.1981917E+03  0.7818608E-02  0.1151577E+00
         21   -1    0    0  501  502  0.00000000000E+00  0.00000000000E+00  0.45861754592E+03  0.45861754592E+03  0.00000000000E+00 0.  1.
         21   -1    0    0  502  503 -0.00000000000E+00 -0.00000000000E+00 -0.85674133666E+02  0.85674133666E+02  0.00000000000E+00 0.  1.
         -6    2    1    2    0  503  0.83581308410E+02 -0.50621286738E+02  0.16367757745E+03  0.25704146089E+03  0.17242857498E+03 0.  0.
        -24    2    3    3    0    0  0.30771075680E+02 -0.11254296222E+02  0.17005897643E+03  0.19069771306E+03  0.79825083909E+02 0.  0.
          6    2    1    2  501    0 -0.83581308410E+02  0.50621286738E+02  0.20926583481E+03  0.28725021870E+03  0.17079856187E+03 0.  0.
         24    2    5    5    0    0 -0.11795729067E+03  0.50795750515E+02  0.20077621556E+03  0.25153044506E+03  0.80388714154E+02 0.  0.
          5    1    5    5  501    0  0.34375982261E+02 -0.17446377756E+00  0.84896192516E+01  0.35719773643E+02  0.47000000000E+01 0. -1.
        -11    1    6    6    0    0 -0.59495476063E+02 -0.14742203604E+02  0.10501992424E+03  0.12159863785E+03  0.00000000000E+00 0.  1.
         12    1    6    6    0    0 -0.58461814609E+02  0.65537954119E+02  0.95756291317E+02  0.12993180721E+03  0.00000000000E+00 0. -1.
         -5    1    3    3    0  503  0.52810232730E+02 -0.39366990516E+02 -0.63813989789E+01  0.66343747831E+02  0.47000000000E+01 0.  1.
         13    1    4    4    0    0  0.10643185432E+02  0.31689402163E+02  0.39249296084E+02  0.51555822646E+02  0.00000000000E+00 0. -1.
        -14    1    4    4    0    0  0.20127890248E+02 -0.42943698385E+02  0.13080968034E+03  0.13914189041E+03  0.00000000000E+00 0.  1.
</event>
<event>
12    1  0.8297444E-002  0.2058454E+03  0.7818608E-02  0.1145071E+00
         21   -1    0    0  503  502  0.00000000000E+00  0.00000000000E+00  0.51508252464E+02  0.51508252464E+02  0.00000000000E+00 0.  1.
         21   -1    0    0  501  503 -0.00000000000E+00 -0.00000000000E+00 -0.12293030980E+04  0.12293030980E+04  0.00000000000E+00 0. -1.
          6    2    1    2  501    0  0.11152510298E+03 -0.43837479549E+01 -0.95795311985E+03  0.97964247131E+03  0.17195384823E+03 0.  0.
         24    2    3    3    0    0  0.76756005985E+02 -0.15541418484E+02 -0.28900652207E+03  0.30968349913E+03  0.79032143418E+02 0.  0.
         -6    2    1    2    0  502 -0.11152510298E+03  0.43837479549E+01 -0.21984172566E+03  0.30116887913E+03  0.17296023697E+03 0.  0.
        -24    2    5    5    0    0 -0.97136632514E+02  0.31391084666E+02 -0.23310875987E+03  0.26748611625E+03  0.82390550965E+02 0.  0.
          5    1    3    3  501    0  0.34769096999E+02  0.11157670529E+02 -0.66894659778E+03  0.66995897218E+03  0.47000000000E+01 0. -1.
        -11    1    4    4    0    0 -0.36451595121E+01 -0.10985013547E+02 -0.21942394296E+01  0.11780169658E+02  0.00000000000E+00 0.  1.
         12    1    4    4    0    0  0.80401165497E+02 -0.45564049374E+01 -0.28681228264E+03  0.29790332947E+03  0.00000000000E+00 0. -1.
         -5    1    5    5    0  502 -0.14388470470E+02 -0.27007336711E+02  0.13267034203E+02  0.33682762880E+02  0.47000000000E+01 0.  1.
         11    1    6    6    0    0 -0.42394381164E+02 -0.13675533244E+02 -0.15815140358E+03  0.16430511319E+03  0.00000000000E+00 0. -1.
        -12    1    6    6    0    0 -0.54742251349E+02  0.45066617910E+02 -0.74957356284E+02  0.10318100307E+03  0.00000000000E+00 0.  1.
</event>
<event>
12    1  0.8297444E-002  0.2174787E+03  0.7818608E-02  0.1135796E+00
         21   -1    0    0  503  502  0.00000000000E+00  0.00000000000E+00  0.36762498588E+03  0.36762498588E+03  0.00000000000E+00 0. -1.
         21   -1    0    0  501  503 -0.00000000000E+00 -0.00000000000E+00 -0.13684467860E+03  0.13684467860E+03  0.00000000000E+00 0.  1.
          6    2    1    2  501    0  0.13164657676E+03  0.20445214949E+02  0.53431844279E+02  0.22384635728E+03  0.17176554281E+03 0.  0.
         24    2    3    3    0    0  0.98948770732E+02  0.51733872195E+02  0.85025135697E+02  0.16845364428E+03  0.93167074702E+02 0.  0.
         -6    2    1    2    0  502 -0.13164657676E+03 -0.20445214949E+02  0.17734846301E+03  0.28062330719E+03  0.17189571031E+03 0.  0.
        -24    2    5    5    0    0 -0.83014904706E+02 -0.15937776014E+02  0.19083892861E+03  0.22973677465E+03  0.95989592376E+02 0.  0.
          5    1    3    3  501    0  0.32697806032E+02 -0.31288657246E+02 -0.31593291418E+02  0.55392713006E+02  0.47000000000E+01 0. -1.
        -13    1    4    4    0    0  0.61707508354E+02  0.41352338028E+02 -0.83927096120E+00  0.74286854984E+02  0.00000000000E+00 0.  1.
         14    1    4    4    0    0  0.37241262377E+02  0.10381534167E+02  0.85864406658E+02  0.94166789293E+02  0.00000000000E+00 0. -1.
         -5    1    5    5    0  502 -0.48631672057E+02 -0.45074389355E+01 -0.13490465599E+02  0.50886532550E+02  0.47000000000E+01 0.  1.
         11    1    6    6    0    0  0.18491092428E+02  0.12148876824E+02  0.40962485498E+02  0.46555782943E+02  0.00000000000E+00 0. -1.
        -12    1    6    6    0    0 -0.10150599713E+03 -0.28086652837E+02  0.14987644311E+03  0.18318099170E+03  0.00000000000E+00 0.  1.
</event>
<event>
12    1  0.8297444E-002  0.2233952E+03  0.7818608E-02  0.1131495E+00
         21   -1    0    0  501  502  0.00000000000E+00  0.00000000000E+00  0.98478862094E+02  0.98478862094E+02  0.00000000000E+00 0. -1.
         21   -1    0    0  502  503 -0.00000000000E+00 -0.00000000000E+00 -0.82962328561E+03  0.82962328561E+03  0.00000000000E+00 0. -1.
         -6    2    1    2    0  503 -0.10784036520E+03  0.94171105887E+02 -0.65539389280E+03  0.69221330512E+03  0.17064689720E+03 0.  0.
        -24    2    3    3    0    0 -0.11314938095E+03  0.35217231613E+02 -0.57353047438E+03  0.59108242846E+03  0.79988726570E+02 0.  0.
          6    2    1    2  501    0  0.10784036520E+03 -0.94171105887E+02 -0.75750530714E+02  0.23588884258E+03  0.17148662221E+03 0.  0.
         24    2    5    5    0    0  0.44925584544E+02 -0.91617692270E+01  0.18250869667E+02  0.94314797576E+02  0.80373755893E+02 0.  0.
          5    1    5    5  501    0  0.62914780655E+02 -0.85009336660E+02 -0.94001400381E+02  0.14157404500E+03  0.47000000000E+01 0. -1.
        -11    1    6    6    0    0 -0.20290157430E+02  0.12378579395E+02  0.64465363112E+01  0.24626764846E+02  0.00000000000E+00 0.  1.
         12    1    6    6    0    0  0.65215741973E+02 -0.21540348622E+02  0.11804333356E+02  0.69688032731E+02  0.00000000000E+00 0. -1.
         -5    1    3    3    0  503  0.53090157473E+01  0.58953874274E+02 -0.81863418419E+02  0.10113087667E+03  0.47000000000E+01 0.  1.
         11    1    4    4    0    0 -0.55435429550E+02  0.58070921558E+02 -0.35031166294E+03  0.35939334992E+03  0.00000000000E+00 0. -1.
        -12    1    4    4    0    0 -0.57713951396E+02 -0.22853689945E+02 -0.22321881144E+03  0.23168907853E+03  0.00000000000E+00 0.  1.
</event>
<event>
12    1  0.8297444E-002  0.1844083E+03  0.7818608E-02  0.1163974E+00
         21   -1    0    0  503  502  0.00000000000E+00  0.00000000000E+00  0.30419966247E+03  0.30419966247E+03  0.00000000000E+00 0. -1.
         21   -1    0    0  501  503 -0.00000000000E+00 -0.00000000000E+00 -0.17417551820E+03  0.17417551820E+03  0.00000000000E+00 0.  1.
          6    2    1    2  501    0 -0.50324718336E+02 -0.41132572559E+02 -0.79045331192E+02  0.20063547669E+03  0.17257451817E+03 0.  0.
         24    2    3    3    0    0 -0.30430790752E+02  0.40683660623E+02 -0.17531989973E+02  0.96253267884E+02  0.79850658348E+02 0.  0.
         -6    2    1    2    0  502  0.50324718336E+02  0.41132572559E+02  0.20906947547E+03  0.27773970398E+03  0.17089421229E+03 0.  0.
        -24    2    5    5    0    0  0.28675127576E+02 -0.29897245754E+02  0.52847219176E+02  0.10470380242E+03  0.80336476278E+02 0.  0.
          5    1    3    3  501    0 -0.19893927584E+02 -0.81816233181E+02 -0.61513341219E+02  0.10438220880E+03  0.47000000000E+01 0. -1.
        -11    1    4    4    0    0 -0.30524950628E+02  0.19872356333E+02 -0.47444276589E+02  0.59813397647E+02  0.00000000000E+00 0.  1.
         12    1    4    4    0    0  0.94159875288E-01  0.20811304289E+02  0.29912286616E+02  0.36439870237E+02  0.00000000000E+00 0. -1.
         -5    1    5    5    0  502  0.21649590760E+02  0.71029818313E+02  0.15622225629E+03  0.17303590157E+03  0.47000000000E+01 0.  1.
         11    1    6    6    0    0 -0.48799027667E+01 -0.25391811070E+02  0.64025976281E+02  0.69049859950E+02  0.00000000000E+00 0. -1.
        -12    1    6    6    0    0  0.33555030343E+02 -0.45054346844E+01 -0.11178757105E+02  0.35653942467E+02  0.00000000000E+00 0.  1.
</event>
<event>
12    1  0.8297444E-002  0.2125654E+03  0.7818608E-02  0.1139570E+00
         21   -1    0    0  501  502  0.00000000000E+00  0.00000000000E+00  0.47031793600E+03  0.47031793600E+03  0.00000000000E+00 0.  1.
         21   -1    0    0  502  503 -0.00000000000E+00 -0.00000000000E+00 -0.14239120644E+03  0.14239120644E+03  0.00000000000E+00 0. -1.
         -6    2    1    2    0  503  0.41509887964E+02  0.11745232317E+03 -0.10877826738E+02  0.21274344386E+03  0.17211428406E+03 0.  0.
        -24    2    3    3    0    0  0.74307949217E+02  0.10289193783E+03 -0.51343564472E+02  0.15845455390E+03  0.79770056105E+02 0.  0.
          6    2    1    2  501    0 -0.41509887964E+02 -0.11745232317E+03  0.33880455631E+03  0.39996569858E+03  0.17223795647E+03 0.  0.
         24    2    5    5    0    0  0.25921164089E+02 -0.81814193051E+02  0.14512855463E+03  0.19176025503E+03  0.91346752032E+02 0.  0.
          5    1    5    5  501    0 -0.67431052053E+02 -0.35638130116E+02  0.19367600168E+03  0.20820544355E+03  0.47000000000E+01 0. -1.
        -13    1    6    6    0    0 -0.67262729600E+01 -0.10860223249E+02  0.10149154402E+03  0.10229232965E+03  0.00000000000E+00 0.  1.
         14    1    6    6    0    0  0.32647437049E+02 -0.70953969803E+02  0.43637010606E+02  0.89467925377E+02  0.00000000000E+00 0. -1.
         -5    1    3    3    0  503 -0.32798061253E+02  0.14560385334E+02  0.40465737734E+02  0.54288889963E+02  0.47000000000E+01 0.  1.
         11    1    4    4    0    0 -0.12368660828E+02  0.39600622768E+02 -0.23060478118E+02  0.47465553250E+02  0.00000000000E+00 0. -1.
        -12    1    4    4    0    0  0.86676610045E+02  0.63291315065E+02 -0.28283086354E+02  0.11098900065E+03  0.00000000000E+00 0.  1.
</event>
<event>
12    1  0.8297444E-002  0.1868560E+03  0.7818608E-02  0.1161554E+00
         21   -1    0    0  501  502  0.00000000000E+00  0.00000000000E+00  0.18308043894E+03  0.18308043894E+03  0.00000000000E+00 0. -1.
         21   -1    0    0  502  503 -0.00000000000E+00 -0.00000000000E+00 -0.25220890139E+03  0.25220890139E+03  0.00000000000E+00 0. -1.
         -6    2    1    2    0  503 -0.63167505028E+02 -0.25645540156E+02 -0.14283800772E+03  0.23442061803E+03  0.17292340005E+03 0.  0.
        -24    2    3    3    0    0  0.89159305910E+01  0.13417985350E+02 -0.23468312736E+02  0.89530332655E+02  0.84884525171E+02 0.  0.
          6    2    1    2  501    0  0.63167505028E+02  0.25645540156E+02  0.73709545271E+02  0.20086872230E+03  0.17397505314E+03 0.  0.
         24    2    5    5    0    0  0.75106050902E+02 -0.38262748597E+02  0.26097622025E+02  0.12014831916E+03  0.81544931838E+02 0.  0.
          5    1    5    5  501    0 -0.11938545875E+02  0.63908288753E+02  0.47611923246E+02  0.80720403147E+02  0.47000000000E+01 0. -1.
        -13    1    6    6    0    0  0.17021646591E+02  0.17118907129E+02 -0.16545949030E+02  0.29267078147E+02  0.00000000000E+00 0.  1.
         14    1    6    6    0    0  0.58084404311E+02 -0.55381655726E+02  0.42643571055E+02  0.90881241010E+02  0.00000000000E+00 0. -1.
         -5    1    3    3    0  503 -0.72083435618E+02 -0.39063525505E+02 -0.11936969498E+03  0.14489028537E+03  0.47000000000E+01 0.  1.
         11    1    4    4    0    0 -0.30540705457E+02  0.28051402920E+02 -0.23053355963E+02  0.47445475198E+02  0.00000000000E+00 0. -1.
        -12    1    4    4    0    0  0.39456636048E+02 -0.14633417570E+02 -0.41495677276E+00  0.42084857457E+02  0.00000000000E+00 0.  1.
</event>
<event>
12    1  0.8297444E-002  0.1906206E+03  0.7818608E-02  0.1157915E+00
         21   -1    0    0  501  502  0.00000000000E+00  0.00000000000E+00  0.46718987003E+03  0.46718987003E+03  0.00000000000E+00 0.  1.
         21   -1    0    0  502  503 -0.00000000000E+00 -0.00000000000E+00 -0.77832979079E+02  0.77832979079E+02  0.00000000000E+00 0. -1.
         -6    2    1    2    0  503  0.36175124414E+02  0.72710595758E+02  0.20334332060E+03  0.27868237784E+03  0.17239458032E+03 0.  0.
        -24    2    3    3    0    0  0.35656015818E+02 -0.20423197814E+02  0.59733955273E+02  0.10745179415E+03  0.79305007290E+02 0.  0.
          6    2    1    2  501    0 -0.36175124414E+02 -0.72710595758E+02  0.18601357035E+03  0.26634047127E+03  0.17245500260E+03 0.  0.
         24    2    5    5    0    0 -0.21476138079E+02 -0.97078015025E+02  0.19725381653E+03  0.23538462440E+03  0.81311055586E+02 0.  0.
          5    1    5    5  501    0 -0.14698986335E+02  0.24367419267E+02 -0.11240246185E+02  0.30955846868E+02  0.47000000000E+01 0. -1.
        -11    1    6    6    0    0 -0.33255437859E+02 -0.30874481441E+02  0.13966346122E+03  0.14685040059E+03  0.00000000000E+00 0.  1.
         12    1    6    6    0    0  0.11779299779E+02 -0.66203533583E+02  0.57590355312E+02  0.88534223819E+02  0.00000000000E+00 0. -1.
         -5    1    3    3    0  503  0.51910859599E+00  0.93133793571E+02  0.14360936533E+03  0.17123058369E+03  0.47000000000E+01 0.  1.
         13    1    4    4    0    0 -0.12338072555E+02 -0.25823595333E+02 -0.24396083896E+01  0.28723471228E+02  0.00000000000E+00 0. -1.
        -14    1    4    4    0    0  0.47994088373E+02  0.54003975190E+01  0.62173563662E+02  0.78728322925E+02  0.00000000000E+00 0.  1.
</event>
<event>
12    1  0.8297444E-002  0.1843845E+03  0.7818608E-02  0.1163880E+00
         21   -1    0    0  503  502  0.00000000000E+00  0.00000000000E+00  0.28203091616E+02  0.28203091616E+02  0.00000000000E+00 0.  1.
         21   -1    0    0  501  503 -0.00000000000E+00 -0.00000000000E+00 -0.15458379752E+04  0.15458379752E+04  0.00000000000E+00 0.  1.
          6    2    1    2  501    0  0.58695262706E+02 -0.25931955079E+02 -0.38398541242E+03  0.42549470240E+03  0.17170714797E+03 0.  0.
         24    2    3    3    0    0  0.21279362194E+02  0.15111121998E+02 -0.73822534028E+02  0.11036364249E+03  0.77776666109E+02 0.  0.
         -6    2    1    2    0  502 -0.58695262706E+02  0.25931955079E+02 -0.11336494711E+04  0.11485463644E+04  0.17285840325E+03 0.  0.
        -24    2    5    5    0    0 -0.23222107858E+01 -0.49080347074E+02 -0.59068887585E+03  0.59751726852E+03  0.75493476489E+02 0.  0.
          5    1    3    3  501    0  0.37415900512E+02 -0.41043077077E+02 -0.31016287839E+03  0.31513105990E+03  0.47000000000E+01 0. -1.
        -13    1    4    4    0    0  0.79717651930E+01 -0.20307032041E+02 -0.68824504104E+02  0.72199286394E+02  0.00000000000E+00 0.  1.
         14    1    4    4    0    0  0.13307597001E+02  0.35418154039E+02 -0.49980299235E+01  0.38164356101E+02  0.00000000000E+00 0. -1.
         -5    1    5    5    0  502 -0.56373051920E+02  0.75012302153E+02 -0.54296059527E+03  0.55102909585E+03  0.47000000000E+01 0.  1.
         11    1    6    6    0    0 -0.38805171326E+02 -0.25428479269E+02 -0.32485740720E+03  0.32815359802E+03  0.00000000000E+00 0. -1.
        -12    1    6    6    0    0  0.36482960541E+02 -0.23651867805E+02 -0.26583146865E+03  0.26936367050E+03  0.00000000000E+00 0.  1.
</event>
<event>
12    1  0.8297444E-002  0.2063706E+03  0.7818608E-02  0.1146403E+00
         21   -1    0    0  503  502  0.00000000000E+00  0.00000000000E+00  0.43017807886E+02  0.43017807886E+02  0.00000000000E+00 0.  1.
         21   -1    0    0  501  503 -0.00000000000E+00 -0.00000000000E+00 -0.10387183874E+04  0.10387183874E+04  0.00000000000E+00 0.  1.
          6    2    1    2  501    0  0.11189990516E+03  0.17440462270E+02 -0.64902595232E+03  0.67828594847E+03  0.16128044705E+03 0.  0.
         24    2    3    3    0    0  0.27739995663E+02 -0.28092726233E+02 -0.20561248685E+03  0.22464098489E+03  0.81414794199E+02 0.  0.
         -6    2    1    2    0  502 -0.11189990516E+03 -0.17440462270E+02 -0.34667462720E+03  0.40345024683E+03  0.17251969749E+03 0.  0.
        -24    2    5    5    0    0 -0.12286353883E+02 -0.57166391257E+02 -0.17968374495E+03  0.20493310956E+03  0.79324525943E+02 0.  0.
          5    1    3    3  501    0  0.84159909497E+02  0.45533188504E+02 -0.44341346547E+03  0.45364496358E+03  0.47000000000E+01 0. -1.
        -13    1    4    4    0    0  0.14873494640E+02 -0.33675042121E+02 -0.20727383545E+03  0.21051762911E+03  0.00000000000E+00 0.  1.
         14    1    4    4    0    0  0.12866501023E+02  0.55823158878E+01  0.16613485953E+01  0.14123355777E+02  0.00000000000E+00 0. -1.
         -5    1    5    5    0  502 -0.99613551277E+02  0.39725928987E+02 -0.16699088226E+03  0.19851713727E+03  0.47000000000E+01 0.  1.
         11    1    6    6    0    0  0.27561624223E+02 -0.43251024246E+02 -0.65445380838E+02  0.83146810529E+02  0.00000000000E+00 0. -1.
        -12    1    6    6    0    0 -0.39847978106E+02 -0.13915367011E+02 -0.11423836411E+03  0.12178629903E+03  0.00000000000E+00 0.  1.
</event>
<event>
12    1  0.8297444E-002  0.1827910E+03  0.7818608E-02  0.1165864E+00
         21   -1    0    0  501  502  0.00000000000E+00  0.00000000000E+00  0.13898328290E+03  0.13898328290E+03  0.00000000000E+00 0.  1.
         21   -1    0    0  502  503 -0.00000000000E+00 -0.00000000000E+00 -0.27082945427E+03  0.27082945427E+03  0.00000000000E+00 0. -1.
         -6    2    1    2    0  503 -0.38505319460E+02  0.33453872595E+02 -0.13948517732E+03  0.22993190081E+03  0.17552989233E+03 0.  0.
        -24    2    3    3    0    0  0.42973153115E+02  0.16996953850E+02 -0.42325297772E+02  0.10197994162E+03  0.80454268577E+02 0.  0.
          6    2    1    2  501    0  0.38505319460E+02 -0.33453872595E+02  0.76390059452E+01  0.17988083635E+03  0.17232800021E+03 0.  0.
         24    2    5    5    0    0 -0.43810056927E+02  0.74505398843E+00  0.41533351129E+01  0.90552074635E+02  0.79136286460E+02 0.  0.
          5    1    5    5  501    0  0.82315376386E+02 -0.34198926583E+02  0.34856708323E+01  0.89328761719E+02  0.47000000000E+01 0. -1.
        -11    1    6    6    0    0  0.79506092486E+01  0.27814582970E+02  0.12561826960E+02  0.31538273729E+02  0.00000000000E+00 0.  1.
         12    1    6    6    0    0 -0.51760666175E+02 -0.27069528981E+02 -0.84084918472E+01  0.59013800906E+02  0.00000000000E+00 0. -1.
         -5    1    3    3    0  503 -0.81478472574E+02  0.16456918745E+02 -0.97159879543E+02  0.12795195919E+03  0.47000000000E+01 0.  1.
         13    1    4    4    0    0  0.53969304347E+02 -0.15547117488E+02 -0.15129328428E+02  0.58166100544E+02  0.00000000000E+00 0. -1.
        -14    1    4    4    0    0 -0.10996151232E+02  0.32544071338E+02 -0.27195969343E+02  0.43813841075E+02  0.00000000000E+00 0.  1.
</event>
<event>
12    1  0.8297444E-002  0.1904506E+03  0.7818608E-02  0.1158101E+00
         21   -1    0    0  503  502  0.00000000000E+00  0.00000000000E+00  0.13681131864E+03  0.13681131864E+03  0.00000000000E+00 0.  1.
         21   -1    0    0  501  503 -0.00000000000E+00 -0.00000000000E+00 -0.32077583581E+03  0.32077583581E+03  0.00000000000E+00 0.  1.
          6    2    1    2  501    0 -0.75540564161E+02 -0.29514899086E+02 -0.18756153863E+03  0.26730272083E+03  0.17231920290E+03 0.  0.
         24    2    3    3    0    0  0.19783481070E+02 -0.48426689266E+02 -0.78518347053E+02  0.12116293488E+03  0.76018389942E+02 0.  0.
         -6    2    1    2    0  502  0.75540564161E+02  0.29514899086E+02  0.35970214670E+01  0.19028443362E+03  0.17209799828E+03 0.  0.
        -24    2    5    5    0    0  0.11601526105E+03  0.43298435119E+02 -0.21092966878E+01  0.14689274063E+03  0.78985649571E+02 0.  0.
          5    1    3    3  501    0 -0.95324045231E+02  0.18911790180E+02 -0.10904319158E+03  0.14613978595E+03  0.47000000000E+01 0. -1.
        -13    1    4    4    0    0 -0.13036607098E+02 -0.24476308993E+02 -0.75487600424E+02  0.80420275083E+02  0.00000000000E+00 0.  1.
         14    1    4    4    0    0  0.32820088168E+02 -0.23950380273E+02 -0.30307466286E+01  0.40742659802E+02  0.00000000000E+00 0. -1.
         -5    1    5    5    0  502 -0.40474696885E+02 -0.13783536032E+02  0.57063181549E+01  0.43391692988E+02  0.47000000000E+01 0.  1.
         13    1    6    6    0    0  0.23135774596E+02  0.38427058671E+02 -0.24666512664E+02  0.51189254256E+02  0.00000000000E+00 0. -1.
        -14    1    6    6    0    0  0.92879486450E+02  0.48713764471E+01  0.22557215976E+02  0.95703486375E+02  0.00000000000E+00 0.  1.
</event>
<event>
12    1  0.8297444E-002  0.2438100E+03  0.7818608E-02  0.1117811E+00
         21   -1    0    0  503  502  0.00000000000E+00  0.00000000000E+00  0.86119257137E+02  0.86119257137E+02  0.00000000000E+00 0. -1.
         21   -1    0    0  501  503 -0.00000000000E+00 -0.00000000000E+00 -0.97748736485E+03  0.97748736485E+03  0.00000000000E+00 0.  1.
          6    2    1    2  501    0  0.49291099201E+02  0.16076018243E+03 -0.74056591949E+03  0.77966736021E+03  0.17654988739E+03 0.  0.
         24    2    3    3    0    0  0.89317623182E+02  0.13079016973E+03 -0.42476948835E+03  0.45990213351E+03  0.77441254265E+02 0.  0.
         -6    2    1    2    0  502 -0.49291099201E+02 -0.16076018243E+03 -0.15080218822E+03  0.28393926178E+03  0.17206613755E+03 0.  0.
        -24    2    5    5    0    0  0.25120505148E+02 -0.12873929964E+03 -0.65187902243E+02  0.16598028688E+03  0.78071415915E+02 0.  0.
          5    1    3    3  501    0 -0.40026523981E+02  0.29970012707E+02 -0.31579643114E+03  0.31976522670E+03  0.47000000000E+01 0. -1.
        -11    1    4    4    0    0  0.18128771662E+02  0.89181496666E+02 -0.26354397787E+03  0.27881431093E+03  0.00000000000E+00 0.  1.
         12    1    4    4    0    0  0.71188851521E+02  0.41608673061E+02 -0.16122551048E+03  0.18108782258E+03  0.00000000000E+00 0. -1.
         -5    1    5    5    0  502 -0.74411604349E+02 -0.32020882795E+02 -0.85614285975E+02  0.11795897490E+03  0.47000000000E+01 0.  1.
         11    1    6    6    0    0  0.50210374665E+01 -0.11070823292E+03 -0.18942961591E+02  0.11242935314E+03  0.00000000000E+00 0. -1.
        -12    1    6    6    0    0  0.20099467681E+02 -0.18031066714E+02 -0.46244940652E+02  0.53550933735E+02  0.00000000000E+00 0.  1.
</event>
<event>
12    1  0.8297444E-002  0.2194225E+03  0.7818608E-02  0.1134358E+00
         21   -1    0    0  501  502  0.00000000000E+00  0.00000000000E+00  0.10810931397E+04  0.10810931397E+04  0.00000000000E+00 0.  1.
         21   -1    0    0  502  503 -0.00000000000E+00 -0.00000000000E+00 -0.46461944306E+02  0.46461944306E+02  0.00000000000E+00 0. -1.
         -6    2    1    2    0  503  0.10455370884E+03  0.86893992319E+02  0.40083954607E+03  0.45685537215E+03  0.17193732995E+03 0.  0.
        -24    2    3    3    0    0  0.69201658874E+02  0.91672435888E+02  0.15631899883E+03  0.20970159616E+03  0.79664452204E+02 0.  0.
          6    2    1    2  501    0 -0.10455370884E+03 -0.86893992319E+02  0.63379164937E+03  0.67069971191E+03  0.17223299570E+03 0.  0.
         24    2    5    5    0    0 -0.10233672403E+03 -0.24409052929E+02  0.25225686656E+03  0.28404720232E+03  0.77334852886E+02 0.  0.
          5    1    5    5  501    0 -0.22169848032E+01 -0.62484939391E+02  0.38153478281E+03  0.38665250959E+03  0.47000000000E+01 0. -1.
        -11    1    6    6    0    0 -0.96240712429E+02  0.27439333480E+01  0.15139342769E+03  0.17941508812E+03  0.00000000000E+00 0.  1.
         12    1    6    6    0    0 -0.60960116043E+01 -0.27152986277E+02  0.10086343887E+03  0.10463211420E+03  0.00000000000E+00 0. -1.
         -5    1    3    3    0  503  0.35352049963E+02 -0.47784435691E+01  0.24452054725E+03  0.24715377599E+03  0.47000000000E+01 0.  1.
         13    1    4    4    0    0  0.74767092052E+01  0.60595827963E+02  0.35805312444E+02  0.70779770742E+02  0.00000000000E+00 0. -1.
        -14    1    4    4    0    0  0.61724949668E+02  0.31076607925E+02  0.12051368638E+03  0.13892182542E+03  0.00000000000E+00 0.  1.
</event>
<event>
12    1  0.8297444E-002  0.1731095E+03  0.7818608E-02  0.1174686E+00
         21   -1    0    0  503  502  0.00000000000E+00  0.00000000000E+00  0.15809362309E+03  0.15809362309E+03  0.00000000000E+00 0.  1.
         21   -1    0    0  501  503 -0.00000000000E+00 -0.00000000000E+00 -0.28065143543E+03  0.28065143543E+03  0.00000000000E+00 0.  1.
          6    2    1    2  501    0  0.10394946514E+02 -0.17842852320E+02 -0.18636826190E+03  0.25424929237E+03  0.17170658502E+03 0.  0.
         24    2    3    3    0    0  0.64968002246E+02  0.26439940633E+02 -0.97565009834E+02  0.14090339814E+03  0.73586171840E+02 0.  0.
         -6    2    1    2    0  502 -0.10394946514E+02  0.17842852320E+02  0.63810449557E+02  0.18449576615E+03  0.17187347662E+03 0.  0.
        -24    2    5    5    0    0  0.37879068825E+02  0.48971106017E+02  0.34290248217E+01  0.10102508155E+03  0.79757857366E+02 0.  0.
          5    1    3    3  501    0 -0.54573055732E+02 -0.44282792953E+02 -0.88803252062E+02  0.11334589424E+03  0.47000000000E+01 0. -1.
        -11    1    4    4    0    0  0.16673042672E+02 -0.21555822660E+02 -0.52799782926E+02  0.59417681876E+02  0.00000000000E+00 0.  1.
         12    1    4    4    0    0  0.48294959574E+02  0.47995763293E+02 -0.44765226907E+02  0.81485716260E+02  0.00000000000E+00 0. -1.
         -5    1    5    5    0  502 -0.48274015338E+02 -0.31128253697E+02  0.60381424735E+02  0.83470684603E+02  0.47000000000E+01 0.  1.
         13    1    6    6    0    0  0.14741878995E+02  0.14579467483E+02 -0.37451132268E+02  0.42807372923E+02  0.00000000000E+00 0. -1.
        -14    1    6    6    0    0  0.23137189830E+02  0.34391638534E+02  0.40880157090E+02  0.58217708628E+02  0.00000000000E+00 0.  1.
</event>
<event>
12    1  0.8297444E-002  0.2507840E+03  0.7818608E-02  0.1112864E+00
         21   -1    0    0  503  502  0.00000000000E+00  0.00000000000E+00  0.21871736293E+04  0.21871736293E+04  0.00000000000E+00 0.  1.
         21   -1    0    0  501  503 -0.00000000000E+00 -0.00000000000E+00 -0.45709329481E+02  0.45709329481E+02  0.00000000000E+00 0.  1.
          6    2    1    2  501    0  0.86743988541E+02 -0.15907308189E+03  0.39046440293E+03  0.46406365513E+03  0.17338933394E+03 0.  0.
         24    2    3    3    0    0  0.12391493613E+03 -0.14196800628E+03  0.29780861857E+03  0.36266618311E+03  0.85597668624E+02 0.  0.
         -6    2    1    2    0  502 -0.86743988541E+02  0.15907308189E+03  0.17509998968E+04  0.17688193036E+04  0.17289397079E+03 0.  0.
        -24    2    5    5    0    0 -0.58638992918E+02  0.14959519585E+03  0.93512097988E+03  0.95238791135E+03  0.82305726280E+02 0.  0.
          5    1    3    3  501    0 -0.37170947589E+02 -0.17105075610E+02  0.92655784359E+02  0.10139747202E+03  0.47000000000E+01 0. -1.
        -13    1    4    4    0    0  0.79168858190E+02 -0.14084402378E+03  0.24445151834E+03  0.29302097529E+03  0.00000000000E+00 0.  1.
         14    1    4    4    0    0  0.44746077939E+02 -0.11239825068E+01  0.53357100229E+02  0.69645207821E+02  0.00000000000E+00 0. -1.
         -5    1    5    5    0  502 -0.28104995623E+02  0.94778860394E+01  0.81587891697E+03  0.81643139225E+03  0.47000000000E+01 0.  1.
         13    1    6    6    0    0 -0.16331831486E+02  0.12822716398E+03  0.76245790532E+03  0.77333756645E+03  0.00000000000E+00 0. -1.
        -14    1    6    6    0    0 -0.42307161432E+02  0.21368031873E+02  0.17266307456E+03  0.17905034490E+03  0.00000000000E+00 0.  1.
</event>
<event>
12    1  0.8297444E-002  0.1853665E+03  0.7818608E-02  0.1162760E+00
         21   -1    0    0  503  502  0.00000000000E+00  0.00000000000E+00  0.21782819358E+03  0.21782819358E+03  0.00000000000E+00 0. -1.
         21   -1    0    0  501  503 -0.00000000000E+00 -0.00000000000E+00 -0.16721336254E+03  0.16721336254E+03  0.00000000000E+00 0.  1.
          6    2    1    2  501    0 -0.46272664719E+02  0.49956284700E+02 -0.20956157601E+02  0.18654732902E+03  0.17240636747E+03 0.  0.
         24    2    3    3    0    0 -0.73138277528E+02  0.64111055087E+02 -0.57762741158E+02  0.13860013652E+03  0.80087630456E+02 0.  0.
         -6    2    1    2    0  502  0.46272664719E+02 -0.49956284700E+02  0.71570988638E+02  0.19849422709E+03  0.17216492643E+03 0.  0.
        -24    2    5    5    0    0  0.53723727163E+02 -0.23322163897E+01 -0.17054182781E+02  0.97498775597E+02  0.79520362167E+02 0.  0.
          5    1    3    3  501    0  0.26865612809E+02 -0.14154770388E+02  0.36806583557E+02  0.47947192509E+02  0.47000000000E+01 0. -1.
        -11    1    4    4    0    0 -0.51923689638E+02  0.60626239292E+01  0.24237306710E+01  0.52332584734E+02  0.00000000000E+00 0.  1.
         12    1    4    4    0    0 -0.21214587890E+02  0.58048431158E+02 -0.60186471829E+02  0.86267551782E+02  0.00000000000E+00 0. -1.
         -5    1    5    5    0  502 -0.74510624435E+01 -0.47624068310E+02  0.88625171419E+02  0.10099545150E+03  0.47000000000E+01 0.  1.
         13    1    6    6    0    0  0.29878338584E+02  0.18339889955E+02  0.26334371645E+02  0.43847072993E+02  0.00000000000E+00 0. -1.
        -14    1    6    6    0    0  0.23845388579E+02 -0.20672106345E+02 -0.43388554426E+02  0.53651702605E+02  0.00000000000E+00 0.  1.
</event>
<event>
12    1  0.8297444E-002  0.2485541E+03  0.7818608E-02  0.1114244E+00
         21   -1    0    0  501  502  0.00000000000E+00  0.00000000000E+00  0.26058807729E+03  0.26058807729E+03  0.00000000000E+00 0. -1.
         21   -1    0    0  502  503 -0.00000000000E+00 -0.00000000000E+00 -0.39660490116E+03  0.39660490116E+03  0.00000000000E+00 0. -1.
         -6    2    1    2    0  503 -0.14894060672E+01  0.18001966203E+03 -0.27650763692E+03  0.37180051199E+03  0.17137634142E+03 0.  0.
        -24    2    3    3    0    0 -0.15950595680E+02  0.37519515340E+02 -0.17878997265E+03  0.19834662844E+03  0.75587003895E+02 0.  0.
          6    2    1    2  501    0  0.14894060672E+01 -0.18001966203E+03  0.14049081305E+03  0.28539246646E+03  0.17117796095E+03 0.  0.
         24    2    5    5    0    0 -0.46077276016E+02 -0.95042139136E+02  0.26851684086E+02  0.13566033807E+03  0.80787318378E+02 0.  0.
          5    1    5    5  501    0  0.47566682083E+02 -0.84977522893E+02  0.11363912896E+03  0.14973212839E+03  0.47000000000E+01 0. -1.
        -13    1    6    6    0    0 -0.30059130958E+02  0.47662182725E+01 -0.21100984862E+01  0.30507715519E+02  0.00000000000E+00 0.  1.
         14    1    6    6    0    0 -0.16018145057E+02 -0.99808357409E+02  0.28961782572E+02  0.10515262255E+03  0.00000000000E+00 0. -1.
         -5    1    3    3    0  503  0.14461189613E+02  0.14250014669E+03 -0.97717664264E+02  0.17345388356E+03  0.47000000000E+01 0.  1.
         13    1    4    4    0    0 -0.40470242148E+02  0.44308418117E+02 -0.13426754746E+03  0.14706750394E+03  0.00000000000E+00 0. -1.
        -14    1    4    4    0    0  0.24519646468E+02 -0.67889027774E+01 -0.44522425193E+02  0.51279124494E+02  0.00000000000E+00 0.  1.
</event>
<event>
12    1  0.8297444E-002  0.1792738E+03  0.7818608E-02  0.1168900E+00
         21   -1    0    0  501  502  0.00000000000E+00  0.00000000000E+00  0.40728856395E+02  0.40728856395E+02  0.00000000000E+00 0. -1.
         21   -1    0    0  502  503 -0.00000000000E+00 -0.00000000000E+00 -0.81413995785E+03  0.81413995785E+03  0.00000000000E+00 0. -1.
         -6    2    1    2    0  503  0.32178193736E+02  0.37533519730E+02 -0.30018115006E+03  0.34881973287E+03  0.17065251809E+03 0.  0.
        -24    2    3    3    0    0 -0.49270397842E+01 -0.36412960758E+02 -0.10683601018E+03  0.13846452507E+03  0.80051934389E+02 0.  0.
          6    2    1    2  501    0 -0.32178193736E+02 -0.37533519730E+02 -0.47322995139E+03  0.50604908138E+03  0.17232203752E+03 0.  0.
         24    2    5    5    0    0  0.28038888766E+02  0.44035181199E+01 -0.36796176470E+03  0.37764233195E+03  0.80076840261E+02 0.  0.
          5    1    5    5  501    0 -0.60217082502E+02 -0.41937037850E+02 -0.10526818670E+03  0.12840674943E+03  0.47000000000E+01 0. -1.
        -13    1    6    6    0    0  0.35358269985E+02  0.24981654505E+00 -0.36751772610E+03  0.36921477308E+03  0.00000000000E+00 0.  1.
         14    1    6    6    0    0 -0.73193812190E+01  0.41537015749E+01 -0.44403859846E+00  0.84275588683E+01  0.00000000000E+00 0. -1.
         -5    1    3    3    0  503  0.37105233521E+02  0.73946480488E+02 -0.19334513988E+03  0.21035520780E+03  0.47000000000E+01 0.  1.
         13    1    4    4    0    0  0.12344815094E+02  0.21364159519E+02 -0.15910512176E+02  0.29359260368E+02  0.00000000000E+00 0. -1.
        -14    1    4    4    0    0 -0.17271854878E+02 -0.57777120276E+02 -0.90925498006E+02  0.10910526470E+03  0.00000000000E+00 0.  1.
</event>
<event>
12    1  0.8297444E-002  0.1793266E+03  0.7818608E-02  0.1168494E+00
         21   -1    0    0  501  502  0.00000000000E+00  0.00000000000E+00  0.29300980650E+03  0.29300980650E+03  0.00000000000E+00 0.  1.
         21   -1    0    0  502  503 -0.00000000000E+00 -0.00000000000E+00 -0.12462768966E+03  0.12462768966E+03  0.00000000000E+00 0.  1.
         -6    2    1    2    0  503 -0.55946200365E+01 -0.48152449912E+02  0.11780863268E+02  0.17955769744E+03  0.17248831776E+03 0.  0.
        -24    2    3    3    0    0  0.53204526206E+02 -0.61423072156E+02 -0.14616533147E+02  0.11358526721E+03  0.78002913300E+02 0.  0.
          6    2    1    2  501    0  0.55946200365E+01  0.48152449912E+02  0.15660125358E+03  0.23807979872E+03  0.17265016575E+03 0.  0.
         24    2    5    5    0    0 -0.14582763428E+02  0.24528392939E+02  0.18040047367E+03  0.19866259755E+03  0.78154959626E+02 0.  0.
          5    1    5    5  501    0  0.20177383465E+02  0.23624056973E+02 -0.23799220095E+02  0.39417201175E+02  0.47000000000E+01 0. -1.
        -13    1    6    6    0    0  0.27266414046E+02  0.30013169789E+02  0.98672066611E+02  0.10667907210E+03  0.00000000000E+00 0.  1.
         14    1    6    6    0    0 -0.41849177474E+02 -0.54847768501E+01  0.81728407061E+02  0.91983525444E+02  0.00000000000E+00 0. -1.
         -5    1    3    3    0  503 -0.58799146243E+02  0.13270622244E+02  0.26397396415E+02  0.65972430235E+02  0.47000000000E+01 0.  1.
         11    1    4    4    0    0  0.58481042295E+02 -0.47475409657E+02  0.18240389179E+02  0.77502636261E+02  0.00000000000E+00 0. -1.
        -12    1    4    4    0    0 -0.52765160888E+01 -0.13947662499E+02 -0.32856922326E+02  0.36082630946E+02  0.00000000000E+00 0.  1.
</event>
<event>
12    1  0.8297444E-002  0.3417887E+03  0.7818608E-02  0.1066076E+00
         21   -1    0    0  503  502  0.00000000000E+00  0.00000000000E+00  0.31927142612E+03  0.31927142612E+03  0.00000000000E+00 0. -1.
         21   -1    0    0  501  503 -0.00000000000E+00 -0.00000000000E+00 -0.36826081752E+03  0.36826081752E+03  0.00000000000E+00 0. -1.
          6    2    1    2  501    0 -0.47984259543E+02  0.29018588120E+03  0.52949947666E+01  0.34182970729E+03  0.17409531011E+03 0.  0.
         24    2    3    3    0    0  0.28204431424E+02  0.21098412665E+03 -0.12765006394E+02  0.23035823920E+03  0.87133124186E+02 0.  0.
         -6    2    1    2    0  502  0.47984259543E+02 -0.29018588120E+03 -0.54284386164E+02  0.34570253635E+03  0.17335834058E+03 0.  0.
        -24    2    5    5    0    0 -0.33606699254E+02 -0.16192344828E+03 -0.60774130771E+02  0.19347723280E+03  0.79945802291E+02 0.  0.
          5    1    3    3  501    0 -0.76188690966E+02  0.79201754552E+02  0.18060001160E+02  0.11147146809E+03  0.47000000000E+01 0. -1.
        -11    1    4    4    0    0  0.85627500270E+01  0.10777898159E+02  0.22252334689E+02  0.26165820756E+02  0.00000000000E+00 0.  1.
         12    1    4    4    0    0  0.19641681397E+02  0.20020622849E+03 -0.35017341082E+02  0.20419241845E+03  0.00000000000E+00 0. -1.
         -5    1    5    5    0  502  0.81590958797E+02 -0.12826243292E+03  0.64897446077E+01  0.15222530355E+03  0.47000000000E+01 0.  1.
         13    1    6    6    0    0 -0.40013357388E+02 -0.16039139602E+03 -0.72122520353E+02  0.18035555613E+03  0.00000000000E+00 0. -1.
        -14    1    6    6    0    0  0.64066581336E+01 -0.15320522661E+01  0.11348389582E+02  0.13121676672E+02  0.00000000000E+00 0.  1.
</event>
<event>
12    1  0.8297444E-002  0.1746124E+03  0.7818608E-02  0.1173188E+00
         21   -1    0    0  501  502  0.00000000000E+00  0.00000000000E+00  0.91292199784E+02  0.91292199784E+02  0.00000000000E+00 0. -1.
         21   -1    0    0  502  503 -0.00000000000E+00 -0.00000000000E+00 -0.33564099172E+03  0.33564099172E+03  0.00000000000E+00 0. -1.
         -6    2    1    2    0  503 -0.11843227397E+01 -0.34435744500E+02 -0.10511308062E+03  0.20380935375E+03  0.17117905783E+03 0.  0.
        -24    2    3    3    0    0 -0.85515007941E+01 -0.88449762050E+02 -0.73751214372E+02  0.14074235716E+03  0.80452973258E+02 0.  0.
          6    2    1    2  501    0  0.11843227397E+01  0.34435744500E+02 -0.13923571132E+03  0.22312383775E+03  0.17091062152E+03 0.  0.
         24    2    5    5    0    0 -0.53074503250E+02 -0.48220278930E+00 -0.37723062907E+02  0.10274862839E+03  0.79480285271E+02 0.  0.
          5    1    5    5  501    0  0.54258825990E+02  0.34917947290E+02 -0.10151264841E+03  0.12037520936E+03  0.47000000000E+01 0. -1.
        -13    1    6    6    0    0  0.67516151675E+01 -0.18247420782E+02  0.12082448375E+02  0.22902799639E+02  0.00000000000E+00 0.  1.
         14    1    6    6    0    0 -0.59826118418E+02  0.17765217993E+02 -0.49805511282E+02  0.79845828754E+02  0.00000000000E+00 0. -1.
         -5    1    3    3    0  503  0.73671780544E+01  0.54014017550E+02 -0.31361866246E+02  0.63066996590E+02  0.47000000000E+01 0.  1.
         13    1    4    4    0    0  0.34314620114E+02 -0.52126315838E+02 -0.28533885775E+02  0.68620904933E+02  0.00000000000E+00 0. -1.
        -14    1    4    4    0    0 -0.42866120908E+02 -0.36323446212E+02 -0.45217328597E+02  0.72121452231E+02  0.00000000000E+00 0.  1.
</event>
<event>
12    1  0.8297444E-002  0.1832219E+03  0.7818608E-02  0.1164833E+00
         21   -1    0    0  503  502  0.00000000000E+00  0.00000000000E+00  0.86174690131E+03  0.86174690131E+03  0.00000000000E+00 0.  1.
         21   -1    0    0  501  503 -0.00000000000E+00 -0.00000000000E+00 -0.33631605148E+03  0.33631605148E+03  0.00000000000E+00 0.  1.
          6    2    1    2  501    0  0.38133470944E+02  0.51200391098E+02 -0.30069002633E+03  0.35186795282E+03  0.17123353242E+03 0.  0.
         24    2    3    3    0    0 -0.27553791888E+02  0.56848163274E+02 -0.15143409321E+03  0.18863150651E+03  0.93051789599E+02 0.  0.
         -6    2    1    2    0  502 -0.38133470944E+02 -0.51200391098E+02  0.82612087616E+03  0.84619499997E+03  0.17174001948E+03 0.  0.
        -24    2    5    5    0    0 -0.65404289980E+02  0.20791551913E+02  0.42397102260E+03  0.43671590142E+03  0.79115995675E+02 0.  0.
          5    1    3    3  501    0  0.65687262832E+02 -0.56477721754E+01 -0.14925593313E+03  0.16323644630E+03  0.47000000000E+01 0. -1.
        -13    1    4    4    0    0 -0.19003429950E+02  0.52576194922E+02 -0.16375666322E+03  0.17303650300E+03  0.00000000000E+00 0.  1.
         14    1    4    4    0    0 -0.85503619382E+01  0.42719683513E+01  0.12322570009E+02  0.15595003510E+02  0.00000000000E+00 0. -1.
         -5    1    5    5    0  502  0.27270819037E+02 -0.71991943011E+02  0.40214985356E+03  0.40947909855E+03  0.47000000000E+01 0.  1.
         13    1    6    6    0    0 -0.35447197205E+02 -0.26470861983E+02  0.12612186518E+03  0.13365603316E+03  0.00000000000E+00 0. -1.
        -14    1    6    6    0    0 -0.29957092775E+02  0.47262413896E+02  0.29784915742E+03  0.30305986826E+03  0.00000000000E+00 0.  1.
</event>
<event>
12    1  0.8297444E-002  0.1810812E+03  0.7818608E-02  0.1168992E+00
         21   -1    0    0  503  502  0.00000000000E+00  0.00000000000E+00  0.15267883218E+02  0.15267883218E+02  0.00000000000E+00 0.  1.
         21   -1    0    0  501  503 -0.00000000000E+00 -0.00000000000E+00 -0.28074703249E+04  0.28074703249E+04  0.00000000000E+00 0. -1.
          6    2    1    2  501    0  0.35325609969E+01 -0.30158458476E+02 -0.21070040567E+04  0.21140159587E+04  0.16933802648E+03 0.  0.
         24    2    3    3    0    0 -0.27759355695E+00 -0.41512553526E+01 -0.20444536370E+04  0.20460046590E+04  0.79542948421E+02 0.  0.
         -6    2    1    2    0  502 -0.35325609969E+01  0.30158458476E+02 -0.68519838496E+03  0.70872224936E+03  0.17851719354E+03 0.  0.
        -24    2    5    5    0    0  0.17060198168E+02  0.65548548838E+02 -0.63766046116E+03  0.64580592060E+03  0.76594782722E+02 0.  0.
          5    1    3    3  501    0  0.38101545539E+01 -0.26007203124E+02 -0.62550419655E+02  0.68011299730E+02  0.47000000000E+01 0. -1.
        -11    1    4    4    0    0 -0.38064597183E+02 -0.16589491633E+01 -0.71763114627E+03  0.71864186335E+03  0.00000000000E+00 0.  1.
         12    1    4    4    0    0  0.37787003626E+02 -0.24923061893E+01 -0.13268224908E+04  0.13273627956E+04  0.00000000000E+00 0. -1.
         -5    1    5    5    0  502 -0.20592759165E+02 -0.35390090361E+02 -0.47537923798E+02  0.62916328762E+02  0.47000000000E+01 0.  1.
         13    1    6    6    0    0  0.26304466788E+02 -0.82636194466E+01 -0.19471359328E+03  0.19665603420E+03  0.00000000000E+00 0. -1.
        -14    1    6    6    0    0 -0.92442686193E+01  0.73812168284E+02 -0.44294686788E+03  0.44914988640E+03  0.00000000000E+00 0.  1.
</event>
<event>
12    1  0.8297444E-002  0.2436091E+03  0.7818608E-02  0.1117613E+00
         21   -1    0    0  503  502  0.00000000000E+00  0.00000000000E+00  0.14075759080E+04  0.14075759080E+04  0.00000000000E+00 0. -1.
         21   -1    0    0  501  503 -0.00000000000E+00 -0.00000000000E+00 -0.48551586973E+02  0.48551586973E+02  0.00000000000E+00 0.  1.
          6    2    1    2  501    0  0.16466632793E+02  0.17324270639E+03  0.41250590780E+03  0.47906840372E+03  0.17047353507E+03 0.  0.
         24    2    3    3    0    0  0.27515593101E+02  0.33325563516E+02  0.86938409046E+02  0.12450504882E+03  0.77945616724E+02 0.  0.
         -6    2    1    2    0  502 -0.16466632793E+02 -0.17324270639E+03  0.94651841325E+03  0.97705909128E+03  0.16871033138E+03 0.  0.
        -24    2    5    5    0    0 -0.37717667987E+01 -0.10283124633E+03  0.82977387519E+03  0.84005430852E+03  0.81105276494E+02 0.  0.
          5    1    3    3  501    0 -0.11048960308E+02  0.13991714287E+03  0.32556749875E+03  0.35456335490E+03  0.47000000000E+01 0. -1.
        -11    1    4    4    0    0 -0.24357041276E+02 -0.43535585869E+01  0.19992159234E+02  0.31810459961E+02  0.00000000000E+00 0.  1.
         12    1    4    4    0    0  0.51872634377E+02  0.37679122103E+02  0.66946249812E+02  0.92694588858E+02  0.00000000000E+00 0. -1.
         -5    1    5    5    0  502 -0.12694865994E+02 -0.70411460061E+02  0.11674453807E+03  0.13700478276E+03  0.47000000000E+01 0.  1.
         11    1    6    6    0    0  0.23965959838E+02 -0.21777763539E+02  0.96397393141E+02  0.10169117769E+03  0.00000000000E+00 0. -1.
        -12    1    6    6    0    0 -0.27737726637E+02 -0.81053482788E+02  0.73337648205E+03  0.73836313083E+03  0.00000000000E+00 0.  1.
</event>
<event>
12    1  0.8297444E-002  0.1759375E+03  0.7818608E-02  0.1173061E+00
         21   -1    0    0  503  502  0.00000000000E+00  0.00000000000E+00  0.96308506919E+02  0.96308506919E+02  0.00000000000E+00 0. -1.
         21   -1    0    0  501  503 -0.00000000000E+00 -0.00000000000E+00 -0.31246234964E+03  0.31246234964E+03  0.00000000000E+00 0. -1.
          6    2    1    2  501    0  0.59606720781E+00 -0.21690383948E+02 -0.11082405998E+03  0.20371390721E+03  0.16954809249E+03 0.  0.
         24    2    3    3    0    0 -0.17395482792E+02 -0.49622079188E+02 -0.83676428473E+01  0.95902577185E+02  0.79764235716E+02 0.  0.
         -6    2    1    2    0  502 -0.59606720781E+00  0.21690383948E+02 -0.10532978274E+03  0.20505694935E+03  0.17459427623E+03 0.  0.
        -24    2    5    5    0    0  0.16750885617E+02 -0.53414350065E+02 -0.49040568142E+02  0.10949438595E+03  0.80314122471E+02 0.  0.
          5    1    3    3  501    0  0.17991550000E+02  0.27931695240E+02 -0.10245641713E+03  0.10781133002E+03  0.47000000000E+01 0. -1.
        -13    1    4    4    0    0  0.29791576368E+02 -0.35334977499E+02 -0.49355053658E+01  0.46480725797E+02  0.00000000000E+00 0.  1.
         14    1    4    4    0    0 -0.47187059161E+02 -0.14287101689E+02 -0.34321374815E+01  0.49421851388E+02  0.00000000000E+00 0. -1.
         -5    1    5    5    0  502 -0.17346952825E+02  0.75104734013E+02 -0.56289214600E+02  0.95562563401E+02  0.47000000000E+01 0.  1.
         11    1    6    6    0    0 -0.23006844830E+02 -0.31686749447E+02 -0.50814763480E+02  0.64152203291E+02  0.00000000000E+00 0. -1.
        -12    1    6    6    0    0  0.39757730447E+02 -0.21727600619E+02  0.17741953374E+01  0.45342182656E+02  0.00000000000E+00 0.  1.
</event>
<event>
12    1  0.8297444E-002  0.2991493E+03  0.7818608E-02  0.1086145E+00
         21   -1    0    0  503  502  0.00000000000E+00  0.00000000000E+00  0.41160196271E+03  0.41160196271E+03  0.00000000000E+00 0.  1.
         21   -1    0    0  501  503 -0.00000000000E+00 -0.00000000000E+00 -0.25889507199E+03  0.25889507199E+03  0.00000000000E+00 0.  1.
          6    2    1    2  501    0  0.17434476528E+03  0.16708971553E+03 -0.62597008762E+02  0.30192404342E+03  0.17007255003E+03 0.  0.
         24    2    3    3    0    0  0.19501251945E+03  0.15205400491E+03 -0.31913081864E+02  0.26171431791E+03  0.79533868596E+02 0.  0.
         -6    2    1    2    0  502 -0.17434476528E+03 -0.16708971553E+03  0.21530389948E+03  0.36857299128E+03  0.17656503208E+03 0.  0.
        -24    2    5    5    0    0 -0.10260724573E+03 -0.37219218983E+02  0.16025837106E+03  0.21025458495E+03  0.81306382649E+02 0.  0.
          5    1    3    3  501    0 -0.20667754166E+02  0.15035710618E+02 -0.30683926898E+02  0.40209725514E+02  0.47000000000E+01 0. -1.
        -11    1    4    4    0    0  0.77263435831E+02  0.41140530462E+02 -0.46818281164E+02  0.99267986855E+02  0.00000000000E+00 0.  1.
         12    1    4    4    0    0  0.11774908362E+03  0.11091347445E+03  0.14905199300E+02  0.16244633105E+03  0.00000000000E+00 0. -1.
         -5    1    5    5    0  502 -0.71737519551E+02 -0.12987049654E+03  0.55045528426E+02  0.15831840633E+03  0.47000000000E+01 0.  1.
         11    1    6    6    0    0 -0.88061604753E+02 -0.11352490149E+02  0.63801854224E+02  0.10933618736E+03  0.00000000000E+00 0. -1.
        -12    1    6    6    0    0 -0.14545640980E+02 -0.25866728834E+02  0.96456516832E+02  0.10091839759E+03  0.00000000000E+00 0.  1.
</event>
<event>
12    1  0.8297444E-002  0.2032606E+03  0.7818608E-02  0.1147213E+00
         21   -1    0    0  503  502  0.00000000000E+00  0.00000000000E+00  0.75777294286E+03  0.75777294286E+03  0.00000000000E+00 0. -1.
         21   -1    0    0  501  503 -0.00000000000E+00 -0.00000000000E+00 -0.13232949716E+03  0.13232949716E+03  0.00000000000E+00 0. -1.
          6    2    1    2  501    0  0.63145864494E+02  0.85653682105E+02 -0.28801466722E+02  0.20529097787E+03  0.17317883141E+03 0.  0.
         24    2    3    3    0    0 -0.32343984192E+02  0.28388514728E+02 -0.39350961853E+00  0.90283531924E+02  0.79365736971E+02 0.  0.
         -6    2    1    2    0  502 -0.63145864494E+02 -0.85653682105E+02  0.65424491242E+03  0.68481146215E+03  0.17206504528E+03 0.  0.
        -24    2    5    5    0    0 -0.10694656676E+03 -0.54562838067E+02  0.53392846781E+03  0.55296579880E+03  0.79226854445E+02 0.  0.
          5    1    3    3  501    0  0.95489848686E+02  0.57265167376E+02 -0.28407957104E+02  0.11500744595E+03  0.47000000000E+01 0. -1.
        -11    1    4    4    0    0 -0.27554442976E+02 -0.23124719109E+02 -0.10703427847E+02  0.37530831715E+02  0.00000000000E+00 0.  1.
         12    1    4    4    0    0 -0.47895412161E+01  0.51513233837E+02  0.10309918229E+02  0.52752700208E+02  0.00000000000E+00 0. -1.
         -5    1    5    5    0  502  0.43800702261E+02 -0.31090844038E+02  0.12031644460E+03  0.13184566334E+03  0.47000000000E+01 0.  1.
         11    1    6    6    0    0 -0.64636926345E+02 -0.32618791320E+02  0.15528063195E+03  0.17133006874E+03  0.00000000000E+00 0. -1.
        -12    1    6    6    0    0 -0.42309640410E+02 -0.21944046747E+02  0.37864783586E+03  0.38163573006E+03  0.00000000000E+00 0.  1.
</event>
<event>
12    1  0.8297444E-002  0.1818005E+03  0.7818608E-02  0.1166089E+00
         21   -1    0    0  501  502  0.00000000000E+00  0.00000000000E+00  0.10393283109E+03  0.10393283109E+03  0.00000000000E+00 0. -1.
         21   -1    0    0  502  503 -0.00000000000E+00 -0.00000000000E+00 -0.58753986372E+03  0.58753986372E+03  0.00000000000E+00 0. -1.
         -6    2    1    2    0  503 -0.99267049709E+01 -0.56403301856E+02 -0.47600244664E+03  0.50951321094E+03  0.17246886960E+03 0.  0.
        -24    2    3    3    0    0 -0.19643656609E+02 -0.10272708984E+03 -0.30588077620E+03  0.33286727910E+03  0.79365282159E+02 0.  0.
          6    2    1    2  501    0  0.99267049709E+01  0.56403301856E+02 -0.76045859970E+01  0.18195948388E+03  0.17254434825E+03 0.  0.
         24    2    5    5    0    0  0.66708526078E+02  0.95222717520E+01  0.15778318243E+02  0.10455886112E+03  0.78376648320E+02 0.  0.
          5    1    5    5  501    0 -0.56781821107E+02  0.46881030104E+02 -0.23382904240E+02  0.77400622753E+02  0.47000000000E+01 0. -1.
        -11    1    6    6    0    0  0.62536519074E+01  0.24264347845E+02 -0.20635939989E+02  0.32460880422E+02  0.00000000000E+00 0.  1.
         12    1    6    6    0    0  0.60454874171E+02 -0.14742076093E+02  0.36414258232E+02  0.72097980701E+02  0.00000000000E+00 0. -1.
         -5    1    3    3    0  503  0.97169516379E+01  0.46323787988E+02 -0.17012167044E+03  0.17664593184E+03  0.47000000000E+01 0.  1.
         13    1    4    4    0    0 -0.30425721811E+02 -0.67744029934E+02 -0.27538386777E+03  0.28522141008E+03  0.00000000000E+00 0. -1.
        -14    1    4    4    0    0  0.10782065202E+02 -0.34983059910E+02 -0.30496908428E+02  0.47645869017E+02  0.00000000000E+00 0.  1.
</event>
<event>
12    1  0.8297444E-002  0.2075295E+03  0.7818608E-02  0.1144353E+00
         21   -1    0    0  501  502  0.00000000000E+00  0.00000000000E+00  0.72438054925E+02  0.72438054925E+02  0.00000000000E+00 0. -1.
         21   -1    0    0  502  503 -0.00000000000E+00 -0.00000000000E+00 -0.99244567624E+03  0.99244567624E+03  0.00000000000E+00 0.  1.
         -6    2    1    2    0  503 -0.91896813727E+02 -0.62489939822E+02 -0.79930006814E+03  0.82480289993E+03  0.17049694384E+03 0.  0.
        -24    2    3    3    0    0 -0.47812851421E+02 -0.78470057924E+02 -0.24659271151E+03  0.27009011661E+03  0.60803675631E+02 0.  0.
          6    2    1    2  501    0  0.91896813727E+02  0.62489939822E+02 -0.12070755318E+03  0.24008083124E+03  0.17526686846E+03 0.  0.
         24    2    5    5    0    0  0.54211271608E+02  0.92624114088E+02 -0.13457268139E+03  0.18965662749E+03  0.79635050672E+02 0.  0.
          5    1    5    5  501    0  0.37685542120E+02 -0.30134174266E+02  0.13865128205E+02  0.50424203748E+02  0.47000000000E+01 0. -1.
        -13    1    6    6    0    0  0.63182050868E+02  0.80785278689E+02 -0.71908335110E+02  0.12525590391E+03  0.00000000000E+00 0.  1.
         14    1    6    6    0    0 -0.89707792603E+01  0.11838835399E+02 -0.62664346275E+02  0.64400723584E+02  0.00000000000E+00 0. -1.
         -5    1    3    3    0  503 -0.44083962306E+02  0.15980118102E+02 -0.55270735662E+03  0.55471278332E+03  0.47000000000E+01 0.  1.
         13    1    4    4    0    0 -0.51317841669E+02 -0.86144168665E+02 -0.21250443163E+03  0.23497334345E+03  0.00000000000E+00 0. -1.
        -14    1    4    4    0    0  0.35049902485E+01  0.76741107415E+01 -0.34088279879E+02  0.35116773163E+02  0.00000000000E+00 0.  1.
</event>
<event>
12    1  0.8297444E-002  0.1996855E+03  0.7818608E-02  0.1150488E+00
         21   -1    0    0  503  502  0.00000000000E+00  0.00000000000E+00  0.31085873929E+03  0.31085873929E+03  0.00000000000E+00 0. -1.
         21   -1    0    0  501  503 -0.00000000000E+00 -0.00000000000E+00 -0.34300415269E+03  0.34300415269E+03  0.00000000000E+00 0.  1.
          6    2    1    2  501    0 -0.37476020545E+02 -0.88694602404E+02 -0.27558936456E+03  0.33899905386E+03  0.17233593951E+03 0.  0.
         24    2    3    3    0    0 -0.18621455345E+02 -0.17107224712E+02 -0.42039442924E+02  0.93952317155E+02  0.80126820733E+02 0.  0.
         -6    2    1    2    0  502  0.37476020545E+02  0.88694602404E+02  0.24344395116E+03  0.31486383811E+03  0.17493740189E+03 0.  0.
        -24    2    5    5    0    0  0.19939597899E+02  0.15586245219E+02  0.22046555292E+03  0.23610817295E+03  0.80631821899E+02 0.  0.
          5    1    3    3  501    0 -0.18854565200E+02 -0.71587377692E+02 -0.23354992164E+03  0.24504673671E+03  0.47000000000E+01 0. -1.
        -11    1    4    4    0    0  0.28899481205E+02 -0.13468555268E+02 -0.24209297896E+01  0.31975660993E+02  0.00000000000E+00 0.  1.
         12    1    4    4    0    0 -0.47520936550E+02 -0.36386694439E+01 -0.39618513135E+02  0.61976656161E+02  0.00000000000E+00 0. -1.
         -5    1    5    5    0  502  0.17536422646E+02  0.73108357185E+02  0.22978398238E+02  0.78755665162E+02  0.47000000000E+01 0.  1.
         11    1    6    6    0    0  0.21889136383E+01  0.46327077226E+02  0.15298385488E+03  0.15985946729E+03  0.00000000000E+00 0. -1.
        -12    1    6    6    0    0  0.17750684261E+02 -0.30740832007E+02  0.67481698040E+02  0.76248705659E+02  0.00000000000E+00 0.  1.
</event>
<event>
12    1  0.8297444E-002  0.2094224E+03  0.7818608E-02  0.1142171E+00
         21   -1    0    0  501  502  0.00000000000E+00  0.00000000000E+00  0.59142694656E+03  0.59142694656E+03  0.00000000000E+00 0.  1.
         21   -1    0    0  502  503 -0.00000000000E+00 -0.00000000000E+00 -0.85709911836E+02  0.85709911836E+02  0.00000000000E+00 0.  1.
         -6    2    1    2    0  503  0.73542109471E+02 -0.94503959418E+02  0.12677262954E+03  0.24417426967E+03  0.17091031027E+03 0.  0.
        -24    2    3    3    0    0  0.48850410750E+02 -0.89537369285E+02  0.15859150040E+03  0.20332237196E+03  0.76061947216E+02 0.  0.
          6    2    1    2  501    0 -0.73542109471E+02  0.94503959418E+02  0.37894440518E+03  0.43296258872E+03  0.17180890782E+03 0.  0.
         24    2    5    5    0    0 -0.95631712413E+02  0.91423103020E+02  0.37995963053E+03  0.41014674079E+03  0.79670697033E+02 0.  0.
          5    1    5    5  501    0  0.22089602942E+02  0.30808563988E+01 -0.10152253510E+01  0.22815847930E+02  0.47000000000E+01 0. -1.
        -13    1    6    6    0    0 -0.74471614695E+02  0.56347386147E+02  0.15094808095E+03  0.17750034497E+03  0.00000000000E+00 0.  1.
         14    1    6    6    0    0 -0.21160097718E+02  0.35075716873E+02  0.22901154958E+03  0.23264639583E+03  0.00000000000E+00 0. -1.
         -5    1    3    3    0  503  0.24691698721E+02 -0.49665901333E+01 -0.31818870858E+02  0.40851897703E+02  0.47000000000E+01 0.  1.
         13    1    4    4    0    0 -0.16772371042E+02 -0.66415506805E+01  0.90532611235E+01  0.20183759877E+02  0.00000000000E+00 0. -1.
        -14    1    4    4    0    0  0.65622781792E+02 -0.82895818605E+02  0.14953823927E+03  0.18313861209E+03  0.00000000000E+00 0.  1.
</event>
<event>
12    1  0.8297444E-002  0.2317372E+03  0.7818608E-02  0.1125532E+00
         21   -1    0    0  503  502  0.00000000000E+00  0.00000000000E+00  0.40995705596E+02  0.40995705596E+02  0.00000000000E+00 0.  1.
         21   -1    0    0  501  503 -0.00000000000E+00 -0.00000000000E+00 -0.13143921531E+04  0.13143921531E+04  0.00000000000E+00 0.  1.
          6    2    1    2  501    0 -0.14619559138E+03 -0.46808154195E+02 -0.68860589404E+03  0.72635516918E+03  0.17277036854E+03 0.  0.
         24    2    3    3    0    0 -0.15531202277E+03 -0.84886714784E+02 -0.56062723421E+03  0.59243835369E+03  0.73162342939E+02 0.  0.
         -6    2    1    2    0  502  0.14619559138E+03  0.46808154195E+02 -0.58479055347E+03  0.62903268953E+03  0.17360293438E+03 0.  0.
        -24    2    5    5    0    0  0.42273937280E+02 -0.29695887781E+02 -0.32978096805E+03  0.34319259911E+03  0.79729177060E+02 0.  0.
          5    1    3    3  501    0  0.91164313877E+01  0.38078560589E+02 -0.12797865983E+03  0.13391681549E+03  0.47000000000E+01 0. -1.
        -11    1    4    4    0    0 -0.73903219495E+02 -0.54057942402E+02 -0.39334558354E+03  0.40386222289E+03  0.00000000000E+00 0.  1.
         12    1    4    4    0    0 -0.81408803274E+02 -0.30828772382E+02 -0.16728165068E+03  0.18857613081E+03  0.00000000000E+00 0. -1.
         -5    1    5    5    0  502  0.10392165410E+03  0.76504041976E+02 -0.25500958542E+03  0.28584009041E+03  0.47000000000E+01 0.  1.
         13    1    6    6    0    0  0.20225274415E+02 -0.40356232434E+02 -0.77213641132E+02  0.89440670829E+02  0.00000000000E+00 0. -1.
        -14    1    6    6    0    0  0.22048662865E+02  0.10660344653E+02 -0.25256732692E+03  0.25375192828E+03  0.00000000000E+00 0.  1.
</event>
<event>
12    1  0.8297444E-002  0.2583719E+03  0.7818608E-02  0.1108212E+00
         21   -1    0    0  503  502  0.00000000000E+00  0.00000000000E+00  0.20119809660E+03  0.20119809660E+03  0.00000000000E+00 0.  1.
         21   -1    0    0  501  503 -0.00000000000E+00 -0.00000000000E+00 -0.33201816433E+03  0.33201816433E+03  0.00000000000E+00 0. -1.
          6    2    1    2  501    0 -0.18338702644E+03  0.58924546226E+02 -0.79652056954E+02  0.26982638089E+03  0.17134445433E+03 0.  0.
         24    2    3    3    0    0 -0.12380695515E+03  0.69717702132E+02  0.11059363591E+02  0.16066169371E+03  0.74169738895E+02 0.  0.
         -6    2    1    2    0  502  0.18338702644E+03 -0.58924546226E+02 -0.51168010785E+02  0.26338988004E+03  0.17220092906E+03 0.  0.
        -24    2    5    5    0    0  0.14238039003E+03 -0.57226254136E+02  0.27825022570E+02  0.17424719810E+03  0.77722805772E+02 0.  0.
          5    1    3    3  501    0 -0.59580071288E+02 -0.10793155906E+02 -0.90711420545E+02  0.10916468718E+03  0.47000000000E+01 0. -1.
        -13    1    4    4    0    0 -0.73929763397E+02  0.13114658267E+02  0.33113027433E+02  0.82061420675E+02  0.00000000000E+00 0.  1.
         14    1    4    4    0    0 -0.49877191754E+02  0.56603043865E+02 -0.22053663842E+02  0.78600273034E+02  0.00000000000E+00 0. -1.
         -5    1    5    5    0  502  0.41006636408E+02 -0.16982920901E+01 -0.78993033355E+02  0.89142681944E+02  0.47000000000E+01 0.  1.
         13    1    6    6    0    0  0.81597255628E+02  0.14592284619E+01  0.36327351622E+02  0.89330386485E+02  0.00000000000E+00 0. -1.
        -14    1    6    6    0    0  0.60783134403E+02 -0.58685482598E+02 -0.85023290524E+01  0.84916811616E+02  0.00000000000E+00 0.  1.
</event>
<event>
12    1  0.8297444E-002  0.2056038E+03  0.7818608E-02  0.1145145E+00
         21   -1    0    0  503  502  0.00000000000E+00  0.00000000000E+00  0.33560620148E+03  0.33560620148E+03  0.00000000000E+00 0.  1.
         21   -1    0    0  501  503 -0.00000000000E+00 -0.00000000000E+00 -0.30070715166E+03  0.30070715166E+03  0.00000000000E+00 0.  1.
          6    2    1    2  501    0 -0.24224647485E+02  0.10958599311E+03 -0.22519413761E+03  0.30476941756E+03  0.17197696019E+03 0.  0.
         24    2    3    3    0    0 -0.78952179923E+02  0.10041006431E+03 -0.16323888544E+03  0.22146369298E+03  0.77997473429E+02 0.  0.
         -6    2    1    2    0  502  0.24224647485E+02 -0.10958599311E+03  0.26009318743E+03  0.33154393558E+03  0.17227011243E+03 0.  0.
        -24    2    5    5    0    0  0.42727398854E+02 -0.84309715622E+01  0.78016193816E+02  0.12238176931E+03  0.83630491258E+02 0.  0.
          5    1    3    3  501    0  0.54727532438E+02  0.91759287931E+01 -0.61955252169E+02  0.83305724577E+02  0.47000000000E+01 0. -1.
        -11    1    4    4    0    0 -0.26235405606E+02  0.92466077364E+02 -0.98971469843E+02  0.13796240000E+03  0.00000000000E+00 0.  1.
         12    1    4    4    0    0 -0.52716774317E+02  0.79439869481E+01 -0.64267415594E+02  0.83501292986E+02  0.00000000000E+00 0. -1.
         -5    1    5    5    0  502 -0.18502751369E+02 -0.10115502154E+03  0.18207699362E+03  0.20916216627E+03  0.47000000000E+01 0.  1.
         11    1    6    6    0    0  0.36450606094E+02 -0.18289002146E+02 -0.26555487896E+01  0.40867911905E+02  0.00000000000E+00 0. -1.
        -12    1    6    6    0    0  0.62767927602E+01  0.98580305835E+01  0.80671742606E+02  0.81513857407E+02  0.00000000000E+00 0.  1.
</event>
<event>
12    1  0.8297444E-002  0.1775270E+03  0.7818608E-02  0.1170595E+00
         21   -1    0    0  503  502  0.00000000000E+00  0.00000000000E+00  0.61418998567E+02  0.61418998567E+02  0.00000000000E+00 0.  1.
         21   -1    0    0  501  503 -0.00000000000E+00 -0.00000000000E+00 -0.55042574646E+03  0.55042574646E+03  0.00000000000E+00 0.  1.
          6    2    1    2  501    0 -0.69721386768E+00 -0.43942435075E+02 -0.32966235491E+03  0.37442369248E+03  0.17200119051E+03 0.  0.
         24    2    3    3    0    0 -0.39939385316E+02 -0.35073247917E+02 -0.31812948729E+03  0.33230828513E+03  0.79982113391E+02 0.  0.
         -6    2    1    2    0  502  0.69721386768E+00  0.43942435075E+02 -0.15934439299E+03  0.23742105255E+03  0.17043091536E+03 0.  0.
        -24    2    5    5    0    0  0.19970362711E+02  0.63539504601E+02 -0.34650580143E+02  0.10964728231E+03  0.79911074216E+02 0.  0.
          5    1    3    3  501    0  0.39242171449E+02 -0.88691871584E+01 -0.11532867622E+02  0.42115407352E+02  0.47000000000E+01 0. -1.
        -11    1    4    4    0    0 -0.62090743933E+02 -0.13769696284E+02 -0.18328338725E+03  0.19400429135E+03  0.00000000000E+00 0.  1.
         12    1    4    4    0    0  0.22151358617E+02 -0.21303551632E+02 -0.13484610003E+03  0.13830399378E+03  0.00000000000E+00 0. -1.
         -5    1    5    5    0  502 -0.19273148843E+02 -0.19597069525E+02 -0.12469381284E+03  0.12777377024E+03  0.47000000000E+01 0.  1.
         11    1    6    6    0    0 -0.13630025234E+02 -0.13574685294E+02 -0.11464107372E+02  0.22393647013E+02  0.00000000000E+00 0. -1.
        -12    1    6    6    0    0  0.33600387945E+02  0.77114189895E+02 -0.23186472770E+02  0.87253635298E+02  0.00000000000E+00 0.  1.
</event>
<event>
12    1  0.8297444E-002  0.1726737E+03  0.7818608E-02  0.1180672E+00
         21   -1    0    0  503  502  0.00000000000E+00  0.00000000000E+00  0.92447498132E+03  0.92447498132E+03  0.00000000000E+00 0.  1.
         21   -1    0    0  501  503 -0.00000000000E+00 -0.00000000000E+00 -0.38755723912E+02  0.38755723912E+02  0.00000000000E+00 0.  1.
          6    2    1    2  501    0 -0.38637582357E+01  0.98263520139E+01  0.17552006561E+03  0.23234145315E+03  0.15186761209E+03 0.  0.
         24    2    3    3    0    0  0.39911606703E+01 -0.20521127347E+02  0.18267828659E+03  0.19984530904E+03  0.78292688835E+02 0.  0.
         -6    2    1    2    0  502  0.38637582357E+01 -0.98263520139E+01  0.71019919180E+03  0.73088925208E+03  0.17235057570E+03 0.  0.
        -24    2    5    5    0    0  0.11628908230E+02 -0.20069779989E+02  0.16132469904E+03  0.18184414994E+03  0.80644955038E+02 0.  0.
          5    1    3    3  501    0 -0.78549189060E+01  0.30347479361E+02 -0.71582209803E+01  0.32496144112E+02  0.47000000000E+01 0. -1.
        -11    1    4    4    0    0 -0.21455875177E+02 -0.39445407300E+02  0.13751205211E+03  0.14465773125E+03  0.00000000000E+00 0.  1.
         12    1    4    4    0    0  0.25447035848E+02  0.18924279953E+02  0.45166234480E+02  0.55187577789E+02  0.00000000000E+00 0. -1.
         -5    1    5    5    0  502 -0.77651499948E+01  0.10243427975E+02  0.54887449277E+03  0.54904510214E+03  0.47000000000E+01 0.  1.
         11    1    6    6    0    0 -0.15082886687E+02 -0.41156878739E+02  0.12306722944E+03  0.13064044205E+03  0.00000000000E+00 0. -1.
        -12    1    6    6    0    0  0.26711794917E+02  0.21087098750E+02  0.38257469601E+02  0.51203707889E+02  0.00000000000E+00 0.  1.
</event>
<event>
12    1  0.8297444E-002  0.1789837E+03  0.7818608E-02  0.1169177E+00
         21   -1    0    0  503  502  0.00000000000E+00  0.00000000000E+00  0.15373271824E+03  0.15373271824E+03  0.00000000000E+00 0. -1.
         21   -1    0    0  501  503 -0.00000000000E+00 -0.00000000000E+00 -0.30605746365E+03  0.30605746365E+03  0.00000000000E+00 0. -1.
          6    2    1    2  501    0  0.42160725383E+02 -0.18852395317E+02 -0.20702044582E+03  0.27263573802E+03  0.17128876520E+03 0.  0.
         24    2    3    3    0    0  0.66428501456E+02  0.41333650897E+02 -0.12036732984E+03  0.16427459359E+03  0.79853813321E+02 0.  0.
         -6    2    1    2    0  502 -0.42160725383E+02  0.18852395317E+02  0.54695700410E+02  0.18715444386E+03  0.17292260303E+03 0.  0.
        -24    2    5    5    0    0 -0.58295661298E+01  0.28223715508E+02  0.97286133767E+02  0.13019999023E+03  0.81589727752E+02 0.  0.
          5    1    3    3  501    0 -0.24267776073E+02 -0.60186046214E+02 -0.86653115982E+02  0.10836114444E+03  0.47000000000E+01 0. -1.
        -11    1    4    4    0    0  0.21150200106E+01 -0.21274673060E+02 -0.30635453492E+02  0.37357944725E+02  0.00000000000E+00 0.  1.
         12    1    4    4    0    0  0.64313481445E+02  0.62608323957E+02 -0.89731876351E+02  0.12691664886E+03  0.00000000000E+00 0. -1.
         -5    1    5    5    0  502 -0.36331159253E+02 -0.93713201915E+01 -0.42590433356E+02  0.56954453630E+02  0.47000000000E+01 0.  1.
         13    1    6    6    0    0 -0.33824913803E+02  0.26125092645E+02  0.92261431854E+02  0.10167997378E+03  0.00000000000E+00 0. -1.
        -14    1    6    6    0    0  0.27995347673E+02  0.20986228636E+01  0.50247019125E+01  0.28520016455E+02  0.00000000000E+00 0.  1.
</event>
<event>
12    1  0.8297444E-002  0.2446369E+03  0.7818608E-02  0.1116760E+00
         21   -1    0    0  501  502  0.00000000000E+00  0.00000000000E+00  0.38881479350E+03  0.38881479350E+03  0.00000000000E+00 0. -1.
         21   -1    0    0  502  503 -0.00000000000E+00 -0.00000000000E+00 -0.21516152813E+03  0.21516152813E+03  0.00000000000E+00 0. -1.
         -6    2    1    2    0  503  0.13289899501E+03 -0.11239138901E+03 -0.74392942106E+02  0.25558840787E+03  0.17174736448E+03 0.  0.
        -24    2    3    3    0    0  0.11933261754E+03 -0.43116978113E+02 -0.99594542777E+02  0.18048713439E+03  0.80976449156E+02 0.  0.
          6    2    1    2  501    0 -0.13289899501E+03  0.11239138901E+03  0.24804620748E+03  0.34838791376E+03  0.17191058784E+03 0.  0.
         24    2    5    5    0    0 -0.36538710452E+02  0.21351287003E+02  0.34873387615E+02  0.97313530872E+02  0.80391637057E+02 0.  0.
          5    1    5    5  501    0 -0.96360284558E+02  0.91040102006E+02  0.21317281986E+03  0.25107438288E+03  0.47000000000E+01 0. -1.
        -11    1    6    6    0    0 -0.13731122734E+02 -0.28458324290E+02 -0.13686187588E+01  0.31627410110E+02  0.00000000000E+00 0.  1.
         12    1    6    6    0    0 -0.22807587718E+02  0.49809611293E+02  0.36242006374E+02  0.65686120762E+02  0.00000000000E+00 0. -1.
         -5    1    3    3    0  503  0.13566377466E+02 -0.69274410896E+02  0.25201600672E+02  0.75101273484E+02  0.47000000000E+01 0.  1.
         13    1    4    4    0    0  0.74534732316E+02 -0.51546481531E+02 -0.26630928174E+02  0.94454605049E+02  0.00000000000E+00 0. -1.
        -14    1    4    4    0    0  0.44797885227E+02  0.84295034176E+01 -0.72963614604E+02  0.86032529341E+02  0.00000000000E+00 0.  1.
</event>
<event>
12    1  0.8297444E-002  0.2700799E+03  0.7818608E-02  0.1101428E+00
         21   -1    0    0  501  502  0.00000000000E+00  0.00000000000E+00  0.10331989329E+03  0.10331989329E+03  0.00000000000E+00 0. -1.
         21   -1    0    0  502  503 -0.00000000000E+00 -0.00000000000E+00 -0.12019107149E+04  0.12019107149E+04  0.00000000000E+00 0.  1.
         -6    2    1    2    0  503  0.15987813056E+03  0.13520972888E+03 -0.96918377422E+03  0.10057488364E+04  0.16843647566E+03 0.  0.
        -24    2    3    3    0    0  0.65802196404E+02  0.13305015295E+03 -0.50882008716E+03  0.53584271865E+03  0.78722714501E+02 0.  0.
          6    2    1    2  501    0 -0.15987813056E+03 -0.13520972888E+03 -0.12940704742E+03  0.29948177180E+03  0.17058857025E+03 0.  0.
         24    2    5    5    0    0 -0.17588193585E+03 -0.15194022223E+03 -0.11280637009E+03  0.27060784446E+03  0.80517338895E+02 0.  0.
          5    1    5    5  501    0  0.16003805294E+02  0.16730493350E+02 -0.16600677338E+02  0.28873927334E+02  0.47000000000E+01 0. -1.
        -11    1    6    6    0    0 -0.83134609115E+02 -0.29710883369E+02 -0.65887487893E+02  0.11016016015E+03  0.00000000000E+00 0.  1.
         12    1    6    6    0    0 -0.92747326736E+02 -0.12222933886E+03 -0.46918882192E+02  0.16044768431E+03  0.00000000000E+00 0. -1.
         -5    1    3    3    0  503  0.94075934153E+02  0.21595759266E+01 -0.46036368705E+03  0.46990611776E+03  0.47000000000E+01 0.  1.
         11    1    4    4    0    0  0.72899130125E+02  0.73597119656E+02 -0.25900242794E+03  0.27894995406E+03  0.00000000000E+00 0. -1.
        -12    1    4    4    0    0 -0.70969337208E+01  0.59453033298E+02 -0.24981765923E+03  0.25689276459E+03  0.00000000000E+00 0.  1.
</event>
<event>
12    1  0.8297444E-002  0.2785303E+03  0.7818608E-02  0.1096753E+00
         21   -1    0    0  501  502  0.00000000000E+00  0.00000000000E+00  0.35251719402E+03  0.35251719402E+03  0.00000000000E+00 0.  1.
         21   -1    0    0  502  503 -0.00000000000E+00 -0.00000000000E+00 -0.29376323016E+03  0.29376323016E+03  0.00000000000E+00 0. -1.
         -6    2    1    2    0  503  0.14881286798E+03 -0.15788023588E+03 -0.13400789587E+03  0.30909100051E+03  0.17466451238E+03 0.  0.
        -24    2    3    3    0    0  0.16704394842E+03 -0.17320276119E+03 -0.12891984065E+03  0.28428917837E+03  0.79354485917E+02 0.  0.
          6    2    1    2  501    0 -0.14881286798E+03  0.15788023588E+03  0.19276185973E+03  0.33718942367E+03  0.17166285069E+03 0.  0.
         24    2    5    5    0    0 -0.98013399972E+02  0.48031629066E+02  0.15128603697E+03  0.20916740898E+03  0.94603784457E+02 0.  0.
          5    1    5    5  501    0 -0.50799468010E+02  0.10984860682E+03  0.41475822762E+02  0.12802201468E+03  0.47000000000E+01 0. -1.
        -13    1    6    6    0    0 -0.73298451937E+02  0.73403542158E+02  0.85402840003E+02  0.13436661839E+03  0.00000000000E+00 0.  1.
         14    1    6    6    0    0 -0.24714948035E+02 -0.25371913092E+02  0.65883196967E+02  0.74800790590E+02  0.00000000000E+00 0. -1.
         -5    1    3    3    0  503 -0.18231080440E+02  0.15322525309E+02 -0.50880552188E+01  0.24801822146E+02  0.47000000000E+01 0.  1.
         11    1    4    4    0    0  0.48702619755E+02 -0.70407678824E+01 -0.20962098929E+02  0.53487635720E+02  0.00000000000E+00 0. -1.
        -12    1    4    4    0    0  0.11834132867E+03 -0.16616199331E+03 -0.10795774172E+03  0.23080154265E+03  0.00000000000E+00 0.  1.
</event>
<event>
12    1  0.8297444E-002  0.2005983E+03  0.7818608E-02  0.1149335E+00
         21   -1    0    0  503  502  0.00000000000E+00  0.00000000000E+00  0.41456415111E+03  0.41456415111E+03  0.00000000000E+00 0.  1.
         21   -1    0    0  501  503 -0.00000000000E+00 -0.00000000000E+00 -0.97998748751E+02  0.97998748751E+02  0.00000000000E+00 0.  1.
          6    2    1    2  501    0  0.10483080989E+02 -0.10476353933E+03  0.13017958882E+03  0.23873934066E+03  0.17018946287E+03 0.  0.
         24    2    3    3    0    0 -0.16955265626E+02 -0.79045716457E+02  0.15583450627E+03  0.19297326078E+03  0.80116039032E+02 0.  0.
         -6    2    1    2    0  502 -0.10483080989E+02  0.10476353933E+03  0.18638581354E+03  0.27382355920E+03  0.17074652537E+03 0.  0.
        -24    2    5    5    0    0  0.38299728476E+02  0.44259372395E+02  0.16679393028E+03  0.19353378024E+03  0.78799414153E+02 0.  0.
          5    1    3    3  501    0  0.27438346616E+02 -0.25717822874E+02 -0.25654917444E+02  0.45766079878E+02  0.47000000000E+01 0. -1.
        -11    1    4    4    0    0  0.23353245092E+02 -0.50974409428E+02  0.45533052262E+02  0.72228964558E+02  0.00000000000E+00 0.  1.
         12    1    4    4    0    0 -0.40308510718E+02 -0.28071307029E+02  0.11030145401E+03  0.12074429622E+03  0.00000000000E+00 0. -1.
         -5    1    5    5    0  502 -0.48782809465E+02  0.60504166936E+02  0.19591883257E+02  0.80289778960E+02  0.47000000000E+01 0.  1.
         13    1    6    6    0    0  0.35386896776E+02  0.59157501451E+02  0.80797064475E+02  0.10620738237E+03  0.00000000000E+00 0. -1.
        -14    1    6    6    0    0  0.29128316996E+01 -0.14898129055E+02  0.85996865806E+02  0.87326397878E+02  0.00000000000E+00 0.  1.
</event>
<event>
12    1  0.8297444E-002  0.2285570E+03  0.7818608E-02  0.1129303E+00
         21   -1    0    0  503  502  0.00000000000E+00  0.00000000000E+00  0.56304858999E+03  0.56304858999E+03  0.00000000000E+00 0. -1.
         21   -1    0    0  501  503 -0.00000000000E+00 -0.00000000000E+00 -0.26014918366E+03  0.26014918366E+03  0.00000000000E+00 0. -1.
          6    2    1    2  501    0 -0.14288630426E+03  0.41330233768E+02 -0.18329420776E+03  0.28596176657E+03  0.16140842969E+03 0.  0.
         24    2    3    3    0    0 -0.38400634377E+02  0.46049667774E+02 -0.14770500351E+03  0.17538053070E+03  0.73118956935E+02 0.  0.
         -6    2    1    2    0  502  0.14288630426E+03 -0.41330233768E+02  0.48619361410E+03  0.53723600707E+03  0.17353274256E+03 0.  0.
        -24    2    5    5    0    0  0.11163811221E+03 -0.43778081890E+02  0.48498139221E+03  0.50551848906E+03  0.77216600791E+02 0.  0.
          5    1    3    3  501    0 -0.10448566988E+03 -0.47194340053E+01 -0.35589204246E+02  0.11058123587E+03  0.47000000000E+01 0. -1.
        -11    1    4    4    0    0 -0.98237087598E+01 -0.62286705834E+01 -0.95378991804E+02  0.96085657975E+02  0.00000000000E+00 0.  1.
         12    1    4    4    0    0 -0.28576925617E+02  0.52278338357E+02 -0.52326011710E+02  0.79294872726E+02  0.00000000000E+00 0. -1.
         -5    1    5    5    0  502  0.31248192053E+02  0.24478481220E+01  0.12122218825E+01  0.31717518013E+02  0.47000000000E+01 0.  1.
         11    1    6    6    0    0  0.78284529155E+02 -0.56114889442E+02  0.25093239994E+03  0.26878321685E+03  0.00000000000E+00 0. -1.
        -12    1    6    6    0    0  0.33353583051E+02  0.12336807552E+02  0.23404899228E+03  0.23673527221E+03  0.00000000000E+00 0.  1.
</event>
<event>
12    1  0.8297444E-002  0.1854024E+03  0.7818608E-02  0.1166558E+00
         21   -1    0    0  503  502  0.00000000000E+00  0.00000000000E+00  0.20535666545E+03  0.20535666545E+03  0.00000000000E+00 0. -1.
         21   -1    0    0  501  503 -0.00000000000E+00 -0.00000000000E+00 -0.15399530080E+03  0.15399530080E+03  0.00000000000E+00 0. -1.
          6    2    1    2  501    0  0.37877503037E+00  0.65264090764E+02  0.36240005898E+02  0.17333391614E+03  0.15643453405E+03 0.  0.
         24    2    3    3    0    0  0.49231718417E+02  0.12273078729E+02  0.15961669395E+02  0.98314196294E+02  0.82683225283E+02 0.  0.
         -6    2    1    2    0  502 -0.37877503037E+00 -0.65264090764E+02  0.15121358756E+02  0.18601805012E+03  0.17353534068E+03 0.  0.
        -24    2    5    5    0    0 -0.37794770107E+02 -0.98652059712E+02 -0.11032208552E+02  0.12926584980E+03  0.73670053388E+02 0.  0.
          5    1    3    3  501    0 -0.48852943387E+02  0.52991012035E+02  0.20278336503E+02  0.75019719843E+02  0.47000000000E+01 0. -1.
        -13    1    4    4    0    0  0.66159815945E+02  0.17230834524E+02 -0.77023710620E+01  0.68799341743E+02  0.00000000000E+00 0.  1.
         14    1    4    4    0    0 -0.16928097528E+02 -0.49577557956E+01  0.23664040457E+02  0.29514854551E+02  0.00000000000E+00 0. -1.
         -5    1    5    5    0  502  0.37415995077E+02  0.33387968948E+02  0.26153567307E+02  0.56752200318E+02  0.47000000000E+01 0.  1.
         13    1    6    6    0    0  0.65137284849E+01 -0.51719354923E+02 -0.32281409928E+02  0.61314025797E+02  0.00000000000E+00 0. -1.
        -14    1    6    6    0    0 -0.44308498592E+02 -0.46932704789E+02  0.21249201377E+02  0.67951824004E+02  0.00000000000E+00 0.  1.
</event>
<event>
12    1  0.8297444E-002  0.3046239E+03  0.7818608E-02  0.1083002E+00
         21   -1    0    0  503  502  0.00000000000E+00  0.00000000000E+00  0.34691339796E+03  0.34691339796E+03  0.00000000000E+00 0.  1.
         21   -1    0    0  501  503 -0.00000000000E+00 -0.00000000000E+00 -0.29718530770E+03  0.29718530770E+03  0.00000000000E+00 0. -1.
          6    2    1    2  501    0 -0.22210397945E+03  0.11810959313E+03 -0.77562313435E+02  0.31394942459E+03  0.17107973305E+03 0.  0.
         24    2    3    3    0    0 -0.20347200648E+03  0.12577476816E+03 -0.19544000813E+02  0.25235299674E+03  0.77973824246E+02 0.  0.
         -6    2    1    2    0  502  0.22210397945E+03 -0.11810959313E+03  0.12729040369E+03  0.33014928107E+03  0.17180118523E+03 0.  0.
        -24    2    5    5    0    0  0.78571505360E+02 -0.11226285520E+03  0.87347701645E+02  0.18097399857E+03  0.79658879372E+02 0.  0.
          5    1    3    3  501    0 -0.18631972968E+02 -0.76651750317E+01 -0.58018312622E+02  0.61596427854E+02  0.47000000000E+01 0. -1.
        -11    1    4    4    0    0 -0.12414792535E+03  0.90179320751E+02  0.23674248238E+02  0.15525941933E+03  0.00000000000E+00 0.  1.
         12    1    4    4    0    0 -0.79324081129E+02  0.35595447406E+02 -0.43218249051E+02  0.97093577408E+02  0.00000000000E+00 0. -1.
         -5    1    5    5    0  502  0.14353247409E+03 -0.58467379216E+01  0.39942702047E+02  0.14917528250E+03  0.47000000000E+01 0.  1.
         13    1    6    6    0    0  0.25541648864E+02  0.82438133653E+01  0.14517551654E+02  0.30513859007E+02  0.00000000000E+00 0. -1.
        -14    1    6    6    0    0  0.53029856496E+02 -0.12050666857E+03  0.72830149991E+02  0.15046013956E+03  0.00000000000E+00 0.  1.
</event>
<event>
12    1  0.8297444E-002  0.2800783E+03  0.7818608E-02  0.1095756E+00
         21   -1    0    0  501  502  0.00000000000E+00  0.00000000000E+00  0.71553811833E+02  0.71553811833E+02  0.00000000000E+00 0. -1.
         21   -1    0    0  502  503 -0.00000000000E+00 -0.00000000000E+00 -0.16223688374E+04  0.16223688374E+04  0.00000000000E+00 0.  1.
         -6    2    1    2    0  503  0.21428723772E+03  0.52339425364E+02 -0.12583931142E+04  0.12890097503E+04  0.17127308872E+03 0.  0.
        -24    2    3    3    0    0  0.10796212455E+03 -0.23390868143E+02 -0.82702281835E+03  0.83829639444E+03  0.81062628976E+02 0.  0.
          6    2    1    2  501    0 -0.21428723772E+03 -0.52339425364E+02 -0.29242191142E+03  0.40491289894E+03  0.17258460462E+03 0.  0.
         24    2    5    5    0    0 -0.21829195729E+03 -0.51127851490E+01 -0.22712875726E+03  0.32409409355E+03  0.75973613254E+02 0.  0.
          5    1    5    5  501    0  0.40047195630E+01 -0.47226640215E+02 -0.65293154152E+02  0.80818805385E+02  0.47000000000E+01 0. -1.
        -11    1    6    6    0    0 -0.47283882762E+02  0.15607689242E+02 -0.94048928075E+02  0.10641694604E+03  0.00000000000E+00 0.  1.
         12    1    6    6    0    0 -0.17100807453E+03 -0.20720474391E+02 -0.13307982919E+03  0.21767714751E+03  0.00000000000E+00 0. -1.
         -5    1    3    3    0  503  0.10632511317E+03  0.75730293506E+02 -0.43137029585E+03  0.45071335590E+03  0.47000000000E+01 0.  1.
         11    1    4    4    0    0  0.18918898638E+01  0.20706537972E+02 -0.17513373170E+03  0.17636372626E+03  0.00000000000E+00 0. -1.
        -12    1    4    4    0    0  0.10607023469E+03 -0.44097406115E+02 -0.65188908665E+03  0.66193266818E+03  0.00000000000E+00 0.  1.
</event>
<event>
12    1  0.8297444E-002  0.1726171E+03  0.7818608E-02  0.1175276E+00
         21   -1    0    0  503  502  0.00000000000E+00  0.00000000000E+00  0.41279726019E+02  0.41279726019E+02  0.00000000000E+00 0. -1.
         21   -1    0    0  501  503 -0.00000000000E+00 -0.00000000000E+00 -0.79867949053E+03  0.79867949053E+03  0.00000000000E+00 0. -1.
          6    2    1    2  501    0 -0.13257018211E+02  0.11421902340E+02 -0.51127055423E+03  0.53962416257E+03  0.17172783359E+03 0.  0.
         24    2    3    3    0    0 -0.61405857932E+02 -0.24712694118E+02 -0.24533235509E+03  0.26691692836E+03  0.81702420750E+02 0.  0.
         -6    2    1    2    0  502  0.13257018211E+02 -0.11421902340E+02 -0.24612921028E+03  0.30033505397E+03  0.17121725411E+03 0.  0.
        -24    2    5    5    0    0 -0.22315394698E+02 -0.13793405997E+02 -0.43518534879E+02  0.94557998943E+02  0.79744074367E+02 0.  0.
          5    1    3    3  501    0  0.48148839721E+02  0.36134596458E+02 -0.26593819914E+03  0.27270723421E+03  0.47000000000E+01 0. -1.
        -13    1    4    4    0    0 -0.53985431395E+02 -0.14255769861E+02 -0.24766772270E+03  0.25388374238E+03  0.00000000000E+00 0.  1.
         14    1    4    4    0    0 -0.74204265366E+01 -0.10456924257E+02  0.23353676177E+01  0.13033185981E+02  0.00000000000E+00 0. -1.
         -5    1    5    5    0  502  0.35572412908E+02  0.23715036572E+01 -0.20261067540E+03  0.20577705503E+03  0.47000000000E+01 0.  1.
         11    1    6    6    0    0 -0.20679361865E+02 -0.34676476399E+02 -0.56850202923E+02  0.69728327063E+02  0.00000000000E+00 0. -1.
        -12    1    6    6    0    0 -0.16360328331E+01  0.20883070402E+02  0.13331668045E+02  0.24829671880E+02  0.00000000000E+00 0.  1.
</event>
<event>
12    1  0.8297444E-002  0.3046345E+03  0.7818608E-02  0.1083474E+00
         21   -1    0    0  503  502  0.00000000000E+00  0.00000000000E+00  0.53845594913E+03  0.53845594913E+03  0.00000000000E+00 0.  1.
         21   -1    0    0  501  503 -0.00000000000E+00 -0.00000000000E+00 -0.24766169249E+03  0.24766169249E+03  0.00000000000E+00 0.  1.
          6    2    1    2  501    0 -0.45122351530E+01  0.24504616335E+03 -0.74083976205E+02  0.31351331272E+03  0.18092589446E+03 0.  0.
         24    2    3    3    0    0 -0.23929184102E+02  0.16267295427E+03 -0.11868918219E+03  0.21773190596E+03  0.79277771165E+02 0.  0.
         -6    2    1    2    0  502  0.45122351530E+01 -0.24504616335E+03  0.36487823284E+03  0.47260432890E+03  0.17363969723E+03 0.  0.
        -24    2    5    5    0    0  0.16952801631E+02 -0.22875844341E+03  0.37680642803E+03  0.44842935516E+03  0.80547994696E+02 0.  0.
          5    1    3    3  501    0  0.19416948949E+02  0.82373209072E+02  0.44605205988E+02  0.95781406758E+02  0.47000000000E+01 0. -1.
        -13    1    4    4    0    0 -0.68678837082E+01  0.16440440978E+03 -0.10088679875E+03  0.19301327401E+03  0.00000000000E+00 0.  1.
         14    1    4    4    0    0 -0.17061300394E+02 -0.17314555097E+01 -0.17802383441E+02  0.24718631950E+02  0.00000000000E+00 0. -1.
         -5    1    5    5    0  502 -0.12440566478E+02 -0.16287719940E+02 -0.11928195184E+02  0.24174973744E+02  0.47000000000E+01 0.  1.
         13    1    6    6    0    0  0.34335062114E+01 -0.54444852863E+01 -0.34037141442E+01  0.72812536634E+01  0.00000000000E+00 0. -1.
        -14    1    6    6    0    0  0.13519295420E+02 -0.22331395812E+03  0.38021014217E+03  0.44114810149E+03  0.00000000000E+00 0.  1.
</event>
<event>
12    1  0.8297444E-002  0.1906170E+03  0.7818608E-02  0.1158107E+00
         21   -1    0    0  501  502  0.00000000000E+00  0.00000000000E+00  0.61027846307E+03  0.61027846307E+03  0.00000000000E+00 0.  1.
         21   -1    0    0  502  503 -0.00000000000E+00 -0.00000000000E+00 -0.59436387598E+02  0.59436387598E+02  0.00000000000E+00 0.  1.
         -6    2    1    2    0  503 -0.41513616234E+02 -0.73041582807E+02  0.25778674930E+03  0.32060702319E+03  0.17110348346E+03 0.  0.
        -24    2    3    3    0    0 -0.28839332439E+02 -0.16473262891E+02  0.40273238035E+02  0.95451899174E+02  0.79912801654E+02 0.  0.
          6    2    1    2  501    0  0.41513616234E+02  0.73041582807E+02  0.29305532617E+03  0.34910782748E+03  0.17010701884E+03 0.  0.
         24    2    5    5    0    0 -0.42257314513E+02  0.18680337887E+02  0.16900035489E+03  0.18978287750E+03  0.72950565345E+02 0.  0.
          5    1    5    5  501    0  0.83770930747E+02  0.54361244919E+02  0.12405497128E+03  0.15932494998E+03  0.47000000000E+01 0. -1.
        -13    1    6    6    0    0 -0.39913699071E+01  0.36534610720E+02  0.11788863770E+03  0.12348457277E+03  0.00000000000E+00 0.  1.
         14    1    6    6    0    0 -0.38265944606E+02 -0.17854272833E+02  0.51111717193E+02  0.66298304725E+02  0.00000000000E+00 0. -1.
         -5    1    3    3    0  503 -0.12674283795E+02 -0.56568319916E+02  0.21751351127E+03  0.22515512402E+03  0.47000000000E+01 0.  1.
         11    1    4    4    0    0  0.21997491467E+02 -0.74826152066E+01  0.37040555654E+02  0.43725072034E+02  0.00000000000E+00 0. -1.
        -12    1    4    4    0    0 -0.50836823906E+02 -0.89906476840E+01  0.32326823815E+01  0.51726827140E+02  0.00000000000E+00 0.  1.
</event>
<event>
12    1  0.8297444E-002  0.2363239E+03  0.7818608E-02  0.1122436E+00
         21   -1    0    0  503  502  0.00000000000E+00  0.00000000000E+00  0.71583425405E+03  0.71583425405E+03  0.00000000000E+00 0.  1.
         21   -1    0    0  501  503 -0.00000000000E+00 -0.00000000000E+00 -0.17537714713E+03  0.17537714713E+03  0.00000000000E+00 0. -1.
          6    2    1    2  501    0  0.16219939413E+03 -0.98532641583E+01 -0.62086307314E+02  0.24434338049E+03  0.17159034869E+03 0.  0.
         24    2    3    3    0    0  0.16483763670E+03 -0.32046135802E+02 -0.91778273113E+02  0.20688424664E+03  0.78609406556E+02 0.  0.
         -6    2    1    2    0  502 -0.16219939413E+03  0.98532641583E+01  0.60254341424E+03  0.64686802069E+03  0.17021733131E+03 0.  0.
        -24    2    5    5    0    0 -0.15776881231E+02 -0.23146659134E+02  0.18631141924E+03  0.20437540959E+03  0.79200285948E+02 0.  0.
          5    1    3    3  501    0 -0.26382425769E+01  0.22192871644E+02  0.29691965799E+02  0.37459133849E+02  0.47000000000E+01 0. -1.
        -11    1    4    4    0    0  0.66589723430E+02 -0.15581992003E+02  0.42470849695E+01  0.68520270519E+02  0.00000000000E+00 0.  1.
         12    1    4    4    0    0  0.98247913275E+02 -0.16464143799E+02 -0.96025358083E+02  0.13836397612E+03  0.00000000000E+00 0. -1.
         -5    1    5    5    0  502 -0.14642251290E+03  0.32999923292E+02  0.41623199499E+03  0.44249261110E+03  0.47000000000E+01 0.  1.
         11    1    6    6    0    0  0.76805888695E+01 -0.15364349790E+02  0.17720624665E+03  0.17803681794E+03  0.00000000000E+00 0. -1.
        -12    1    6    6    0    0 -0.23457470101E+02 -0.77823093439E+01  0.91051725935E+01  0.26338591652E+02  0.00000000000E+00 0.  1.
</event>
<event>
12    1  0.8297444E-002  0.2381227E+03  0.7818608E-02  0.1121063E+00
         21   -1    0    0  503  502  0.00000000000E+00  0.00000000000E+00  0.28697958914E+03  0.28697958914E+03  0.00000000000E+00 0. -1.
         21   -1    0    0  501  503 -0.00000000000E+00 -0.00000000000E+00 -0.21649468359E+03  0.21649468359E+03  0.00000000000E+00 0.  1.
          6    2    1    2  501    0 -0.13565001835E+03 -0.92632092107E+02 -0.39288952596E+02  0.24126686018E+03  0.17229174112E+03 0.  0.
         24    2    3    3    0    0 -0.89876792457E+02 -0.43396017423E+02  0.43014881539E+02  0.13489303646E+03  0.79904937909E+02 0.  0.
         -6    2    1    2    0  502  0.13565001835E+03  0.92632092107E+02  0.10977385815E+03  0.26220741255E+03  0.17239720211E+03 0.  0.
        -24    2    5    5    0    0  0.70730921222E+02  0.64966767342E+01 -0.28777097552E+01  0.10617451632E+03  0.78864926784E+02 0.  0.
          5    1    3    3  501    0 -0.45773225895E+02 -0.49236074685E+02 -0.82303834136E+02  0.10637382372E+03  0.47000000000E+01 0. -1.
        -11    1    4    4    0    0 -0.52302539151E+02  0.17888333372E+02  0.11800577885E+02  0.56522577002E+02  0.00000000000E+00 0.  1.
         12    1    4    4    0    0 -0.37574253306E+02 -0.61284350794E+02  0.31214303654E+02  0.78370459463E+02  0.00000000000E+00 0. -1.
         -5    1    5    5    0  502  0.64919097130E+02  0.86135415373E+02  0.11265156791E+03  0.15603289623E+03  0.47000000000E+01 0.  1.
         13    1    6    6    0    0  0.56365260451E+01  0.32401303056E+02  0.11145899707E+02  0.34725292596E+02  0.00000000000E+00 0. -1.
        -14    1    6    6    0    0  0.65094395177E+02 -0.25904626322E+02 -0.14023609462E+02  0.71449223724E+02  0.00000000000E+00 0.  1.
</event>
<event>
12    1  0.8297444E-002  0.1761795E+03  0.7818608E-02  0.1172067E+00
         21   -1    0    0  503  502  0.00000000000E+00  0.00000000000E+00  0.99306290315E+03  0.99306290315E+03  0.00000000000E+00 0.  1.
         21   -1    0    0  501  503 -0.00000000000E+00 -0.00000000000E+00 -0.38229625468E+02  0.38229625468E+02  0.00000000000E+00 0.  1.
          6    2    1    2  501    0  0.32337013193E+02 -0.75178369921E+01  0.25378484517E+03  0.30894329223E+03  0.17302314840E+03 0.  0.
         24    2    3    3    0    0  0.75192536237E+02  0.82159713512E+01  0.10009505193E+03  0.14854755935E+03  0.79535767286E+02 0.  0.
         -6    2    1    2    0  502 -0.32337013193E+02  0.75178369921E+01  0.70104843251E+03  0.72234923638E+03  0.17093072948E+03 0.  0.
        -24    2    5    5    0    0 -0.52153509854E+02  0.49457254732E+02  0.29887227529E+03  0.31747967747E+03  0.79389546109E+02 0.  0.
          5    1    3    3  501    0 -0.42855523044E+02 -0.15733808343E+02  0.15368979324E+03  0.16039573288E+03  0.47000000000E+01 0. -1.
        -11    1    4    4    0    0  0.65914099067E+02 -0.28141735857E+02  0.72704351306E+02  0.10209088329E+03  0.00000000000E+00 0.  1.
         12    1    4    4    0    0  0.92784371699E+01  0.36357707208E+02  0.27390700620E+02  0.46456676056E+02  0.00000000000E+00 0. -1.
         -5    1    5    5    0  502  0.19816496661E+02 -0.41939417740E+02  0.40217615722E+03  0.40486955891E+03  0.47000000000E+01 0.  1.
         11    1    6    6    0    0 -0.69317281073E+02  0.18578731723E+02  0.20037964797E+03  0.21284280126E+03  0.00000000000E+00 0. -1.
        -12    1    6    6    0    0  0.17163771219E+02  0.30878523010E+02  0.98492627318E+02  0.10463687620E+03  0.00000000000E+00 0.  1.
</event>
<event>
12    1  0.8297444E-002  0.1817222E+03  0.7818608E-02  0.1166822E+00
         21   -1    0    0  501  502  0.00000000000E+00  0.00000000000E+00  0.21624250900E+03  0.21624250900E+03  0.00000000000E+00 0.  1.
         21   -1    0    0  502  503 -0.00000000000E+00 -0.00000000000E+00 -0.15240000908E+03  0.15240000908E+03  0.00000000000E+00 0.  1.
         -6    2    1    2    0  503 -0.19722298709E+02 -0.56178152274E+02  0.52967675872E+02  0.18659521293E+03  0.16872239016E+03 0.  0.
        -24    2    3    3    0    0 -0.82681887451E+01  0.21828389225E+02  0.65346240973E+02  0.10664813027E+03  0.80986733236E+02 0.  0.
          6    2    1    2  501    0  0.19722298709E+02  0.56178152274E+02  0.10874824046E+02  0.18204730515E+03  0.17169160042E+03 0.  0.
         24    2    5    5    0    0  0.69692601399E+01  0.93250574757E+02  0.43588985051E+02  0.13077049916E+03  0.80353491238E+02 0.  0.
          5    1    5    5  501    0  0.12753038569E+02 -0.37072422483E+02 -0.32714161005E+02  0.51276805983E+02  0.47000000000E+01 0. -1.
        -11    1    6    6    0    0  0.32007846457E+02  0.11966244589E+02  0.28267850977E+02  0.44348220294E+02  0.00000000000E+00 0.  1.
         12    1    6    6    0    0 -0.25038586317E+02  0.81284330168E+02  0.15321134073E+02  0.86422278869E+02  0.00000000000E+00 0. -1.
         -5    1    3    3    0  503 -0.11454109964E+02 -0.78006541499E+02 -0.12378565101E+02  0.79947082659E+02  0.47000000000E+01 0.  1.
         11    1    4    4    0    0  0.82796004694E+00  0.54805612340E+01 -0.19237556627E+02  0.20020131224E+02  0.00000000000E+00 0. -1.
        -12    1    4    4    0    0 -0.90961487920E+01  0.16347827991E+02  0.84583797600E+02  0.86627999049E+02  0.00000000000E+00 0.  1.
</event>
<event>
12    1  0.8297444E-002  0.2546582E+03  0.7818608E-02  0.1112353E+00
         21   -1    0    0  501  502  0.00000000000E+00  0.00000000000E+00  0.44032401447E+02  0.44032401447E+02  0.00000000000E+00 0.  1.
         21   -1    0    0  502  503 -0.00000000000E+00 -0.00000000000E+00 -0.14930775405E+04  0.14930775405E+04  0.00000000000E+00 0.  1.
         -6    2    1    2    0  503 -0.11210154143E+03  0.12905163449E+03 -0.93095379603E+03  0.96515582289E+03  0.18875834332E+03 0.  0.
        -24    2    3    3    0    0 -0.89999657450E+02  0.12845192074E+03 -0.44314457243E+03  0.47682316828E+03  0.79896104139E+02 0.  0.
          6    2    1    2  501    0  0.11210154143E+03 -0.12905163449E+03 -0.51809134307E+03  0.57195411909E+03  0.17173175195E+03 0.  0.
         24    2    5    5    0    0  0.14417180759E+03 -0.82781070759E+02 -0.37309911653E+03  0.41634466309E+03  0.80633193860E+02 0.  0.
          5    1    5    5  501    0 -0.32070266159E+02 -0.46270563734E+02 -0.14499222654E+03  0.15560945600E+03  0.47000000000E+01 0. -1.
        -13    1    6    6    0    0  0.20744672054E+01 -0.34486304983E+02 -0.76344149551E+02  0.83797600301E+02  0.00000000000E+00 0.  1.
         14    1    6    6    0    0  0.14209734039E+03 -0.48294765776E+02 -0.29675496698E+03  0.33254706279E+03  0.00000000000E+00 0. -1.
         -5    1    3    3    0  503 -0.22101883983E+02  0.59971375568E+00 -0.48780922360E+03  0.48833265461E+03  0.47000000000E+01 0.  1.
         11    1    4    4    0    0 -0.63928564434E+01  0.45667834096E+02 -0.21762140875E+03  0.22245335968E+03  0.00000000000E+00 0. -1.
        -12    1    4    4    0    0 -0.83606801006E+02  0.82784086642E+02 -0.22552316368E+03  0.25436980861E+03  0.00000000000E+00 0.  1.
</event>
<event>
12    1  0.8297444E-002  0.3605696E+03  0.7818608E-02  0.1058411E+00
         21   -1    0    0  503  502  0.00000000000E+00  0.00000000000E+00  0.71968360579E+03  0.71968360579E+03  0.00000000000E+00 0. -1.
         21   -1    0    0  501  503 -0.00000000000E+00 -0.00000000000E+00 -0.22008670178E+03  0.22008670178E+03  0.00000000000E+00 0.  1.
          6    2    1    2  501    0  0.28208078994E+03 -0.14364789877E+03  0.50071098171E+02  0.36350310834E+03  0.17153164148E+03 0.  0.
         24    2    3    3    0    0  0.26358427607E+03 -0.13964051199E+03 -0.16184339721E+01  0.30825749397E+03  0.77742652888E+02 0.  0.
         -6    2    1    2    0  502 -0.28208078994E+03  0.14364789877E+03  0.44952580584E+03  0.57626719923E+03  0.17264455949E+03 0.  0.
        -24    2    5    5    0    0 -0.27781226471E+03  0.93433484496E+02  0.41925958747E+03  0.51729397071E+03  0.76843867648E+02 0.  0.
          5    1    3    3  501    0  0.18496513863E+02 -0.40073867805E+01  0.51689532143E+02  0.55245614369E+02  0.47000000000E+01 0. -1.
        -13    1    4    4    0    0  0.45745512908E+02 -0.17658309077E+00 -0.17816526826E+02  0.49092889108E+02  0.00000000000E+00 0.  1.
         14    1    4    4    0    0  0.21783876317E+03 -0.13946392889E+03  0.16198092854E+02  0.25916460486E+03  0.00000000000E+00 0. -1.
         -5    1    5    5    0  502 -0.42685252208E+01  0.50214414270E+02  0.30266218375E+02  0.58973228525E+02  0.47000000000E+01 0.  1.
         13    1    6    6    0    0 -0.39700575750E+02  0.10526119545E+02  0.11516311277E+03  0.12226805572E+03  0.00000000000E+00 0. -1.
        -14    1    6    6    0    0 -0.23811168896E+03  0.82907364951E+02  0.30409647470E+03  0.39502591498E+03  0.00000000000E+00 0.  1.
</event>
<event>
12    1  0.8297444E-002  0.1935916E+03  0.7818608E-02  0.1155516E+00
         21   -1    0    0  501  502  0.00000000000E+00  0.00000000000E+00  0.26122301371E+04  0.26122301371E+04  0.00000000000E+00 0.  1.
         21   -1    0    0  502  503 -0.00000000000E+00 -0.00000000000E+00 -0.10503992179E+04  0.10503992179E+04  0.00000000000E+00 0.  1.
         -6    2    1    2    0  503 -0.72347313779E+02  0.53394620844E+02 -0.10378927982E+04  0.10557931381E+04  0.17144261556E+03 0.  0.
        -24    2    3    3    0    0 -0.98216923547E+02  0.36369198350E+01 -0.54107146854E+03  0.55579454892E+03  0.80557155371E+02 0.  0.
          6    2    1    2  501    0  0.72347313779E+02 -0.53394620844E+02  0.25997237174E+04  0.26068362170E+04  0.17013681498E+03 0.  0.
         24    2    5    5    0    0  0.53653175206E+02 -0.70302132071E+02  0.25261386854E+04  0.25289120122E+04  0.78728994105E+02 0.  0.
          5    1    5    5  501    0  0.18694138573E+02  0.16907511227E+02  0.73585031990E+02  0.77924204749E+02  0.47000000000E+01 0. -1.
        -11    1    6    6    0    0 -0.88267873710E+01 -0.47755102663E+02  0.13761072579E+04  0.13769639238E+04  0.00000000000E+00 0.  1.
         12    1    6    6    0    0  0.62479962577E+02 -0.22547029408E+02  0.11500314275E+04  0.11519480884E+04  0.00000000000E+00 0. -1.
         -5    1    3    3    0  503  0.25869609768E+02  0.49757701009E+02 -0.49682132967E+03  0.49999858914E+03  0.47000000000E+01 0.  1.
         13    1    4    4    0    0  0.45739762118E+01 -0.10609810184E+02 -0.17267481910E+03  0.17306092130E+03  0.00000000000E+00 0. -1.
        -14    1    4    4    0    0 -0.10279089976E+03  0.14246730019E+02 -0.36839664944E+03  0.38273362762E+03  0.00000000000E+00 0.  1.
</event>
<event>
12    1  0.8297444E-002  0.1749406E+03  0.7818608E-02  0.1172803E+00
         21   -1    0    0  501  502  0.00000000000E+00  0.00000000000E+00  0.24141270441E+03  0.24141270441E+03  0.00000000000E+00 0.  1.
         21   -1    0    0  502  503 -0.00000000000E+00 -0.00000000000E+00 -0.18473239781E+03  0.18473239781E+03  0.00000000000E+00 0.  1.
         -6    2    1    2    0  503 -0.68606939174E+00  0.23940646776E+02 -0.91048365395E+02  0.19717355744E+03  0.17324543762E+03 0.  0.
        -24    2    3    3    0    0  0.91104563009E+01  0.77271802400E+02 -0.29981036841E+02  0.11537201288E+03  0.79736484287E+02 0.  0.
          6    2    1    2  501    0  0.68606939174E+00 -0.23940646776E+02  0.14772867199E+03  0.22897154477E+03  0.17329334243E+03 0.  0.
         24    2    5    5    0    0  0.29148771189E+02  0.37169538582E+01  0.16454747880E+03  0.18561222595E+03  0.80700427725E+02 0.  0.
          5    1    5    5  501    0 -0.28462701797E+02 -0.27657600634E+02 -0.16818806809E+02  0.43359318824E+02  0.47000000000E+01 0. -1.
        -11    1    6    6    0    0  0.66277452652E+00 -0.32665604811E+02  0.34115205751E+02  0.47236937572E+02  0.00000000000E+00 0.  1.
         12    1    6    6    0    0  0.28485996662E+02  0.36382558669E+02  0.13043227305E+03  0.13837528838E+03  0.00000000000E+00 0. -1.
         -5    1    3    3    0  503 -0.97965256927E+01 -0.53331155624E+02 -0.61067328554E+02  0.81801544561E+02  0.47000000000E+01 0.  1.
         13    1    4    4    0    0  0.18971693568E+02  0.16370919302E+02  0.23027875910E+02  0.34032561240E+02  0.00000000000E+00 0. -1.
        -14    1    4    4    0    0 -0.98612372669E+01  0.60900883098E+02 -0.53008912751E+02  0.81339451643E+02  0.00000000000E+00 0.  1.
</event>
<event>
12    1  0.8297444E-002  0.1900086E+03  0.7818608E-02  0.1158485E+00
         21   -1    0    0  501  502  0.00000000000E+00  0.00000000000E+00  0.29528354535E+02  0.29528354535E+02  0.00000000000E+00 0.  1.
         21   -1    0    0  502  503 -0.00000000000E+00 -0.00000000000E+00 -0.13257110814E+04  0.13257110814E+04  0.00000000000E+00 0.  1.
         -6    2    1    2    0  503  0.46283373262E+02  0.66201653213E+02 -0.45856563082E+03  0.49637254120E+03  0.17198387239E+03 0.  0.
        -24    2    3    3    0    0  0.14623474039E+02  0.33944866352E+02 -0.43723759805E+03  0.44617468767E+03  0.80802443182E+02 0.  0.
          6    2    1    2  501    0 -0.46283373262E+02 -0.66201653213E+02 -0.83761709604E+03  0.85886689472E+03  0.17182879198E+03 0.  0.
         24    2    5    5    0    0  0.29145825994E+02  0.10462854313E+01 -0.46259554816E+03  0.47044045288E+03  0.80430122729E+02 0.  0.
          5    1    5    5  501    0 -0.75429199257E+02 -0.67247938645E+02 -0.37502154787E+03  0.38842644184E+03  0.47000000000E+01 0. -1.
        -11    1    6    6    0    0  0.12775215352E+02  0.77258228582E+01 -0.44581281840E+03  0.44606273495E+03  0.00000000000E+00 0.  1.
         12    1    6    6    0    0  0.16370610642E+02 -0.66795374269E+01 -0.16782729762E+02  0.24377717927E+02  0.00000000000E+00 0. -1.
         -5    1    3    3    0  503  0.31659899223E+02  0.32256786861E+02 -0.21328032771E+02  0.50197853532E+02  0.47000000000E+01 0.  1.
         11    1    4    4    0    0  0.36388249416E+02 -0.93074841428E+01 -0.24863165357E+03  0.25145264587E+03  0.00000000000E+00 0. -1.
        -12    1    4    4    0    0 -0.21764775377E+02  0.43252350495E+02 -0.18860594447E+03  0.19472204179E+03  0.00000000000E+00 0.  1.
</event>
<event>
12    1  0.8297444E-002  0.2035865E+03  0.7818608E-02  0.1146993E+00
         21   -1    0    0  501  502  0.00000000000E+00  0.00000000000E+00  0.30185307666E+03  0.30185307666E+03  0.00000000000E+00 0. -1.
         21   -1    0    0  502  503 -0.00000000000E+00 -0.00000000000E+00 -0.13942506408E+03  0.13942506408E+03  0.00000000000E+00 0.  1.
         -6    2    1    2    0  503 -0.10455520875E+03 -0.22957250302E+02  0.49545614758E+02  0.20952861499E+03  0.17317230015E+03 0.  0.
        -24    2    3    3    0    0 -0.44439120216E+02  0.53092742969E+02  0.29134000099E+02  0.11035064571E+03  0.80838111592E+02 0.  0.
          6    2    1    2  501    0  0.10455520875E+03  0.22957250302E+02  0.11288239782E+03  0.23174952576E+03  0.17177479423E+03 0.  0.
         24    2    5    5    0    0  0.50105908709E+02 -0.53452346451E+02  0.58688319244E+02  0.12329566044E+03  0.79935884547E+02 0.  0.
          5    1    5    5  501    0  0.54449300038E+02  0.76409596752E+02  0.54194078572E+02  0.10845386532E+03  0.47000000000E+01 0. -1.
        -13    1    6    6    0    0  0.62931247843E+02 -0.24349111744E+02  0.14776820204E+02  0.69076592368E+02  0.00000000000E+00 0.  1.
         14    1    6    6    0    0 -0.12825339134E+02 -0.29103234707E+02  0.43911499040E+02  0.54219068069E+02  0.00000000000E+00 0. -1.
         -5    1    3    3    0  503 -0.60116088532E+02 -0.76049993270E+02  0.20411614659E+02  0.99177969276E+02  0.47000000000E+01 0.  1.
         11    1    4    4    0    0 -0.22015236681E+02  0.59557379608E+02  0.48600027849E+02  0.79960707969E+02  0.00000000000E+00 0. -1.
        -12    1    4    4    0    0 -0.22423883534E+02 -0.64646366396E+01 -0.19466027750E+02  0.30389937743E+02  0.00000000000E+00 0.  1.
</event>
<event>
12    1  0.8297444E-002  0.1980046E+03  0.7818608E-02  0.1153353E+00
         21   -1    0    0  501  502  0.00000000000E+00  0.00000000000E+00  0.34777782751E+03  0.34777782751E+03  0.00000000000E+00 0.  1.
         21   -1    0    0  502  503 -0.00000000000E+00 -0.00000000000E+00 -0.14798456588E+03  0.14798456588E+03  0.00000000000E+00 0.  1.
         -6    2    1    2    0  503  0.38818378805E+02 -0.91565691962E+02 -0.27610558451E+02  0.19992040592E+03  0.17121531266E+03 0.  0.
        -24    2    3    3    0    0 -0.37590306918E+02 -0.16246163067E+02 -0.21332098721E+02  0.92343327773E+02  0.79970386768E+02 0.  0.
          6    2    1    2  501    0 -0.38818378805E+02  0.91565691962E+02  0.22740382008E+03  0.29584198747E+03  0.16099329702E+03 0.  0.
         24    2    5    5    0    0  0.30992001767E+01  0.11548356965E+03  0.13099582686E+03  0.18792656013E+03  0.69357230682E+02 0.  0.
          5    1    5    5  501    0 -0.41917578981E+02 -0.23917877688E+02  0.96407993227E+02  0.10791542734E+03  0.47000000000E+01 0. -1.
        -11    1    6    6    0    0  0.34997922293E+02  0.49368954245E+02  0.69589846126E+02  0.92221987031E+02  0.00000000000E+00 0.  1.
         12    1    6    6    0    0 -0.31898722116E+02  0.66114615404E+02  0.61405980730E+02  0.95704573099E+02  0.00000000000E+00 0. -1.
         -5    1    3    3    0  503  0.76408685723E+02 -0.75319528895E+02 -0.62784597298E+01  0.10757707815E+03  0.47000000000E+01 0.  1.
         13    1    4    4    0    0 -0.16155953172E+02  0.18780496148E+02  0.21648099508E+02  0.32899271585E+02  0.00000000000E+00 0. -1.
        -14    1    4    4    0    0 -0.21434353746E+02 -0.35026659215E+02 -0.42980198230E+02  0.59444056188E+02  0.00000000000E+00 0.  1.
</event>
<event>
12    1  0.8297444E-002  0.2127692E+03  0.7818608E-02  0.1139877E+00
         21   -1    0    0  501  502  0.00000000000E+00  0.00000000000E+00  0.21370939695E+03  0.21370939695E+03  0.00000000000E+00 0. -1.
         21   -1    0    0  502  503 -0.00000000000E+00 -0.00000000000E+00 -0.22516553010E+03  0.22516553010E+03  0.00000000000E+00 0. -1.
         -6    2    1    2    0  503 -0.12421520495E+03  0.68111270817E+01 -0.63874503303E+02  0.22215010809E+03  0.17261202089E+03 0.  0.
        -24    2    3    3    0    0 -0.90604434754E+02  0.68251325796E+02 -0.61365113078E+02  0.15191501052E+03  0.80281294505E+02 0.  0.
          6    2    1    2  501    0  0.12421520495E+03 -0.68111270817E+01  0.52418370156E+02  0.21672481896E+03  0.16954690511E+03 0.  0.
         24    2    5    5    0    0  0.24652280548E+02 -0.48998595174E+02  0.52292345618E+02  0.10849051635E+03  0.77634434771E+02 0.  0.
          5    1    5    5  501    0  0.99562924403E+02  0.42187468092E+02  0.12602453792E+00  0.10823430261E+03  0.47000000000E+01 0. -1.
        -11    1    6    6    0    0 -0.34216038000E+01  0.14598654130E+02  0.33152750910E+02  0.36385889681E+02  0.00000000000E+00 0.  1.
         12    1    6    6    0    0  0.28073884348E+02 -0.63597249304E+02  0.19139594708E+02  0.72104626668E+02  0.00000000000E+00 0. -1.
         -5    1    3    3    0  503 -0.33610770196E+02 -0.61440198714E+02 -0.25093902257E+01  0.70235097569E+02  0.47000000000E+01 0.  1.
         11    1    4    4    0    0 -0.29205443871E+02  0.28537293570E+02 -0.67120677116E+02  0.78565389151E+02  0.00000000000E+00 0. -1.
        -12    1    4    4    0    0 -0.61398990884E+02  0.39714032226E+02  0.57555640381E+01  0.73349621366E+02  0.00000000000E+00 0.  1.
</event>
<event>
12    1  0.8297444E-002  0.1826592E+03  0.7818608E-02  0.1165724E+00
         21   -1    0    0  501  502  0.00000000000E+00  0.00000000000E+00  0.11431388911E+03  0.11431388911E+03  0.00000000000E+00 0. -1.
         21   -1    0    0  502  503 -0.00000000000E+00 -0.00000000000E+00 -0.30388040151E+03  0.30388040151E+03  0.00000000000E+00 0. -1.
         -6    2    1    2    0  503  0.71089768396E+01 -0.55871725999E+02 -0.14196459579E+03  0.23134031817E+03  0.17375905455E+03 0.  0.
        -24    2    3    3    0    0  0.31017005877E+02 -0.72395020606E+02 -0.16140995653E+03  0.19605823813E+03  0.78629288496E+02 0.  0.
          6    2    1    2  501    0 -0.71089768396E+01  0.55871725999E+02 -0.47601916618E+02  0.18685397245E+03  0.17168656685E+03 0.  0.
         24    2    5    5    0    0  0.31165608449E+02  0.57476399316E+02  0.22669196182E+02  0.10668142010E+03  0.81192372247E+02 0.  0.
          5    1    5    5  501    0 -0.38274585289E+02 -0.16046733179E+01 -0.70271112800E+02  0.80172552346E+02  0.47000000000E+01 0. -1.
        -11    1    6    6    0    0  0.33753913761E+02  0.77212138952E+02  0.19894118018E+02  0.86584161528E+02  0.00000000000E+00 0.  1.
         12    1    6    6    0    0 -0.25883053122E+01 -0.19735739636E+02  0.27750781640E+01  0.20097258574E+02  0.00000000000E+00 0. -1.
         -5    1    3    3    0  503 -0.23908029037E+02  0.16523294608E+02  0.19445360748E+02  0.35282080037E+02  0.47000000000E+01 0.  1.
         11    1    4    4    0    0  0.48241326777E+01  0.16433557673E+02 -0.38727343088E+02  0.42345497713E+02  0.00000000000E+00 0. -1.
        -12    1    4    4    0    0  0.26192873199E+02 -0.88828578279E+02 -0.12268261345E+03  0.15371274042E+03  0.00000000000E+00 0.  1.
</event>
<event>
12    1  0.8297444E-002  0.3494609E+03  0.7818608E-02  0.1062861E+00
         21   -1    0    0  503  502  0.00000000000E+00  0.00000000000E+00  0.23182960446E+03  0.23182960446E+03  0.00000000000E+00 0.  1.
         21   -1    0    0  501  503 -0.00000000000E+00 -0.00000000000E+00 -0.63696387234E+03  0.63696387234E+03  0.00000000000E+00 0. -1.
          6    2    1    2  501    0  0.22776146802E+03  0.20145965568E+03 -0.38359226610E+03  0.51890842896E+03  0.17222558419E+03 0.  0.
         24    2    3    3    0    0  0.79576382255E+02  0.11975585468E+03 -0.26684868817E+03  0.31327408423E+03  0.79111087293E+02 0.  0.
         -6    2    1    2    0  502 -0.22776146802E+03 -0.20145965568E+03 -0.21542001770E+02  0.34988504784E+03  0.17173878326E+03 0.  0.
        -24    2    5    5    0    0 -0.77462716674E+02 -0.10817888509E+03  0.44486433435E+02  0.16101244242E+03  0.79011519428E+02 0.  0.
          5    1    3    3  501    0  0.14818508577E+03  0.81703801006E+02 -0.11674357793E+03  0.20563434473E+03  0.47000000000E+01 0. -1.
        -11    1    4    4    0    0  0.37683212247E+02  0.97583663273E+02 -0.12116480170E+03  0.16007343625E+03  0.00000000000E+00 0.  1.
         12    1    4    4    0    0  0.41893170008E+02  0.22172191407E+02 -0.14568388647E+03  0.15320064798E+03  0.00000000000E+00 0. -1.
         -5    1    5    5    0  502 -0.15029875135E+03 -0.93280770598E+02 -0.66028435205E+02  0.18887260542E+03  0.47000000000E+01 0.  1.
         11    1    6    6    0    0  0.20751829852E+01 -0.55735346888E+02  0.33620682529E+02  0.65123617612E+02  0.00000000000E+00 0. -1.
        -12    1    6    6    0    0 -0.79537899659E+02 -0.52443538198E+02  0.10865750906E+02  0.95888824811E+02  0.00000000000E+00 0.  1.
</event>
<event>
12    1  0.8297444E-002  0.2640248E+03  0.7818608E-02  0.1104752E+00
         21   -1    0    0  503  502  0.00000000000E+00  0.00000000000E+00  0.10832097746E+03  0.10832097746E+03  0.00000000000E+00 0. -1.
         21   -1    0    0  501  503 -0.00000000000E+00 -0.00000000000E+00 -0.77764485318E+03  0.77764485318E+03  0.00000000000E+00 0.  1.
          6    2    1    2  501    0  0.33275825362E+02  0.19737656986E+03 -0.51866616384E+03  0.58199974470E+03  0.17217526661E+03 0.  0.
         24    2    3    3    0    0  0.18959399940E+02  0.22034645197E+03 -0.48044806969E+03  0.53493289605E+03  0.80067707993E+02 0.  0.
         -6    2    1    2    0  502 -0.33275825362E+02 -0.19737656986E+03 -0.15065771187E+03  0.30396608594E+03  0.17214193090E+03 0.  0.
        -24    2    5    5    0    0 -0.52961143446E+02 -0.14100574915E+03 -0.17006348497E+03  0.24100693089E+03  0.80468924489E+02 0.  0.
          5    1    3    3  501    0  0.14316425421E+02 -0.22969882113E+02 -0.38218094146E+02  0.47066848644E+02  0.47000000000E+01 0. -1.
        -13    1    4    4    0    0  0.35303906395E+02  0.19531547782E+03 -0.45203254454E+03  0.49368808270E+03  0.00000000000E+00 0.  1.
         14    1    4    4    0    0 -0.16344506455E+02  0.25030974151E+02 -0.28415525158E+02  0.41244813350E+02  0.00000000000E+00 0. -1.
         -5    1    5    5    0  502  0.19685318085E+02 -0.56370820709E+02  0.19405773098E+02  0.62959155054E+02  0.47000000000E+01 0.  1.
         11    1    6    6    0    0 -0.73577779092E+02 -0.11417399538E+03 -0.12451087026E+03  0.18426162815E+03  0.00000000000E+00 0. -1.
        -12    1    6    6    0    0  0.20616635646E+02 -0.26831753773E+02 -0.45552614711E+02  0.56745302738E+02  0.00000000000E+00 0.  1.
</event>
<event>
12    1  0.8297444E-002  0.2053461E+03  0.7818608E-02  0.1145332E+00
         21   -1    0    0  501  502  0.00000000000E+00  0.00000000000E+00  0.31777659618E+03  0.31777659618E+03  0.00000000000E+00 0.  1.
         21   -1    0    0  502  503 -0.00000000000E+00 -0.00000000000E+00 -0.21861642351E+03  0.21861642351E+03  0.00000000000E+00 0.  1.
         -6    2    1    2    0  503 -0.67772682977E+02  0.89979190630E+02 -0.11865096293E+03  0.23704584700E+03  0.17153218728E+03 0.  0.
        -24    2    3    3    0    0  0.32109878036E+01  0.76076998788E+02 -0.12016642716E+02  0.10810818492E+03  0.75795512781E+02 0.  0.
          6    2    1    2  501    0  0.67772682977E+02 -0.89979190630E+02  0.21781113559E+03  0.29934717268E+03  0.17169055798E+03 0.  0.
         24    2    5    5    0    0  0.29490819837E+02  0.19066130781E+02  0.11871198934E+03  0.14703461917E+03  0.79331059653E+02 0.  0.
          5    1    5    5  501    0  0.38281863140E+02 -0.10904532141E+03  0.99099146256E+02  0.15231255351E+03  0.47000000000E+01 0. -1.
        -11    1    6    6    0    0  0.80480962240E+01 -0.29647556211E+02  0.62387516054E+02  0.69541006619E+02  0.00000000000E+00 0.  1.
         12    1    6    6    0    0  0.21442723613E+02  0.48713686992E+02  0.56324473284E+02  0.77493612556E+02  0.00000000000E+00 0. -1.
         -5    1    3    3    0  503 -0.70983670781E+02  0.13902191842E+02 -0.10663432021E+03  0.12893766208E+03  0.47000000000E+01 0.  1.
         13    1    4    4    0    0 -0.34157991580E+01  0.90739610973E+02 -0.62620823294E+01  0.91019549320E+02  0.00000000000E+00 0. -1.
        -14    1    4    4    0    0  0.66267869616E+01 -0.14662612184E+02 -0.57545603868E+01  0.17088635602E+02  0.00000000000E+00 0.  1.
</event>
<event>
12    1  0.8297444E-002  0.1803680E+03  0.7818608E-02  0.1167728E+00
         21   -1    0    0  503  502  0.00000000000E+00  0.00000000000E+00  0.25399602715E+02  0.25399602715E+02  0.00000000000E+00 0. -1.
         21   -1    0    0  501  503 -0.00000000000E+00 -0.00000000000E+00 -0.12730574199E+04  0.12730574199E+04  0.00000000000E+00 0. -1.
          6    2    1    2  501    0 -0.51967845184E+02 -0.14122306339E+02 -0.63810092709E+03  0.66310285583E+03  0.17214095322E+03 0.  0.
         24    2    3    3    0    0 -0.93254893121E+02 -0.25076723170E+02 -0.56516676400E+03  0.57845002526E+03  0.76587488957E+02 0.  0.
         -6    2    1    2    0  502  0.51967845184E+02  0.14122306339E+02 -0.60955689014E+03  0.63535416684E+03  0.17092459897E+03 0.  0.
        -24    2    5    5    0    0  0.87920489126E+02 -0.16883640751E+02 -0.51968717830E+03  0.53360635867E+03  0.81522469218E+02 0.  0.
          5    1    3    3  501    0  0.41287047938E+02  0.10954416831E+02 -0.72934163098E+02  0.84652830563E+02  0.47000000000E+01 0. -1.
        -13    1    4    4    0    0 -0.54013642228E+02  0.22646081790E+02 -0.33771317087E+03  0.34275429150E+03  0.00000000000E+00 0.  1.
         14    1    4    4    0    0 -0.39241250893E+02 -0.47722804960E+02 -0.22745359313E+03  0.23569573376E+03  0.00000000000E+00 0. -1.
         -5    1    5    5    0  502 -0.35952643942E+02  0.31005947090E+02 -0.89869711834E+02  0.10174780817E+03  0.47000000000E+01 0.  1.
         11    1    6    6    0    0  0.66894516145E+02  0.10515184948E+02 -0.45739714087E+03  0.46238251468E+03  0.00000000000E+00 0. -1.
        -12    1    6    6    0    0  0.21025972981E+02 -0.27398825699E+02 -0.62290037434E+02  0.71223843992E+02  0.00000000000E+00 0.  1.
</event>
<event>
12    1  0.8297444E-002  0.2027331E+03  0.7818608E-02  0.1147617E+00
         21   -1    0    0  501  502  0.00000000000E+00  0.00000000000E+00  0.10400851471E+04  0.10400851471E+04  0.00000000000E+00 0.  1.
         21   -1    0    0  502  503 -0.00000000000E+00 -0.00000000000E+00 -0.70497569646E+02  0.70497569646E+02  0.00000000000E+00 0.  1.
         -6    2    1    2    0  503 -0.98593519544E+02  0.36328050400E+02  0.11629839530E+03  0.23372208715E+03  0.17337902967E+03 0.  0.
        -24    2    3    3    0    0  0.13053406566E+02  0.19348422006E+01  0.27426845407E+02  0.86861026075E+02  0.81353985548E+02 0.  0.
          6    2    1    2  501    0  0.98593519544E+02 -0.36328050400E+02  0.85328918217E+03  0.87686062961E+03  0.17245789633E+03 0.  0.
         24    2    5    5    0    0  0.29037871285E+00 -0.72544238181E+01  0.22654521703E+03  0.24177097365E+03  0.84129408403E+02 0.  0.
          5    1    5    5  501    0  0.98303140831E+02 -0.29073626582E+02  0.62674396514E+03  0.63508965596E+03  0.47000000000E+01 0. -1.
        -13    1    6    6    0    0  0.27617238697E+02 -0.31750110657E+02  0.16344221509E+03  0.16877244762E+03  0.00000000000E+00 0.  1.
         14    1    6    6    0    0 -0.27326859984E+02  0.24495686839E+02  0.63103001933E+02  0.72998526035E+02  0.00000000000E+00 0. -1.
         -5    1    3    3    0  503 -0.11164692611E+03  0.34393208199E+02  0.88871549889E+02  0.14686106107E+03  0.47000000000E+01 0.  1.
         13    1    4    4    0    0  0.99344117953E+01 -0.18483611267E+01  0.56490261507E+02  0.57386920301E+02  0.00000000000E+00 0. -1.
        -14    1    4    4    0    0  0.31189947706E+01  0.37832033273E+01 -0.29063416100E+02  0.29474105774E+02  0.00000000000E+00 0.  1.
</event>
<event>
12    1  0.8297444E-002  0.2170957E+03  0.7818608E-02  0.1136097E+00
         21   -1    0    0  501  502  0.00000000000E+00  0.00000000000E+00  0.26023262060E+03  0.26023262060E+03  0.00000000000E+00 0. -1.
         21   -1    0    0  502  503 -0.00000000000E+00 -0.00000000000E+00 -0.24727968525E+03  0.24727968525E+03  0.00000000000E+00 0.  1.
         -6    2    1    2    0  503  0.10359602605E+02  0.13067768537E+03  0.13787403513E+03  0.25704112184E+03  0.17284938512E+03 0.  0.
        -24    2    3    3    0    0 -0.39098810291E+02  0.19758748879E+02  0.49496938432E+02  0.10676888123E+03  0.83848207866E+02 0.  0.
          6    2    1    2  501    0 -0.10359602605E+02 -0.13067768537E+03 -0.12492109978E+03  0.25047118401E+03  0.17305072675E+03 0.  0.
         24    2    5    5    0    0 -0.35313803029E+02 -0.83970532463E+02 -0.14641468731E+03  0.19312718209E+03  0.86963974119E+02 0.  0.
          5    1    5    5  501    0  0.24954200424E+02 -0.46707152903E+02  0.21493587530E+02  0.57344001919E+02  0.47000000000E+01 0. -1.
        -11    1    6    6    0    0 -0.56854879099E+02 -0.57218366263E+02 -0.61201541228E+02  0.10125239436E+03  0.00000000000E+00 0.  1.
         12    1    6    6    0    0  0.21541076069E+02 -0.26752166200E+02 -0.85213146085E+02  0.91874787730E+02  0.00000000000E+00 0. -1.
         -5    1    3    3    0  503  0.49458412897E+02  0.11091893649E+03  0.88377096694E+02  0.15027224061E+03  0.47000000000E+01 0.  1.
         13    1    4    4    0    0 -0.13621148787E+02 -0.36970931186E+01  0.66646370817E+02  0.68124466493E+02  0.00000000000E+00 0. -1.
        -14    1    4    4    0    0 -0.25477661504E+02  0.23455841998E+02 -0.17149432385E+02  0.38644414741E+02  0.00000000000E+00 0.  1.
</event>
<event>
12    1  0.8297444E-002  0.1820223E+03  0.7818608E-02  0.1166487E+00
         21   -1    0    0  503  502  0.00000000000E+00  0.00000000000E+00  0.97365589394E+03  0.97365589394E+03  0.00000000000E+00 0. -1.
         21   -1    0    0  501  503 -0.00000000000E+00 -0.00000000000E+00 -0.34420174592E+02  0.34420174592E+02  0.00000000000E+00 0. -1.
          6    2    1    2  501    0 -0.14266073370E+02 -0.59414263496E+02  0.55338176939E+03  0.58254913844E+03  0.17146002577E+03 0.  0.
         24    2    3    3    0    0  0.23887480432E+02 -0.25883952244E+02  0.13898963978E+03  0.16502919577E+03  0.81706332584E+02 0.  0.
         -6    2    1    2    0  502  0.14266073370E+02  0.59414263496E+02  0.38585394996E+03  0.42552693010E+03  0.16869001744E+03 0.  0.
        -24    2    5    5    0    0 -0.29858662001E+01  0.72387179534E+02  0.12873673488E+03  0.16746244540E+03  0.78877782400E+02 0.  0.
          5    1    3    3  501    0 -0.38153553802E+02 -0.33530311252E+02  0.41439212961E+03  0.41751994266E+03  0.47000000000E+01 0. -1.
        -11    1    4    4    0    0 -0.17044357449E+02 -0.12674784088E+01 -0.99479428886E+00  0.17120345734E+02  0.00000000000E+00 0.  1.
         12    1    4    4    0    0  0.40931837881E+02 -0.24616473836E+02  0.13998443407E+03  0.14790885004E+03  0.00000000000E+00 0. -1.
         -5    1    5    5    0  502  0.17251939570E+02 -0.12972916038E+02  0.25711721508E+03  0.25806448470E+03  0.47000000000E+01 0.  1.
         11    1    6    6    0    0 -0.38679389562E+02  0.24062638700E+02  0.69455815084E+02  0.83061519412E+02  0.00000000000E+00 0. -1.
        -12    1    6    6    0    0  0.35693523362E+02  0.48324540835E+02  0.59280919792E+02  0.84400925992E+02  0.00000000000E+00 0.  1.
</event>
<event>
12    1  0.8297444E-002  0.1790358E+03  0.7818608E-02  0.1168753E+00
         21   -1    0    0  501  502  0.00000000000E+00  0.00000000000E+00  0.28526332504E+03  0.28526332504E+03  0.00000000000E+00 0.  1.
         21   -1    0    0  502  503 -0.00000000000E+00 -0.00000000000E+00 -0.34133888002E+03  0.34133888002E+03  0.00000000000E+00 0.  1.
         -6    2    1    2    0  503  0.25934983902E+02  0.41528698179E+02 -0.28466084522E+03  0.33628205371E+03  0.17221082046E+03 0.  0.
        -24    2    3    3    0    0  0.55038482723E+02  0.66996809127E+02 -0.12182911029E+03  0.16885474943E+03  0.78433330135E+02 0.  0.
          6    2    1    2  501    0 -0.25934983902E+02 -0.41528698179E+02  0.22858529024E+03  0.29032015135E+03  0.17215486982E+03 0.  0.
         24    2    5    5    0    0  0.11894302402E+02 -0.39623869281E+02  0.23488972568E+03  0.25163528116E+03  0.80222229146E+02 0.  0.
          5    1    5    5  501    0 -0.37829286304E+02 -0.19048288978E+01 -0.63044354399E+01  0.38684870190E+02  0.47000000000E+01 0. -1.
        -13    1    6    6    0    0  0.14872634214E+02 -0.52342457801E+02  0.23194829831E+03  0.23824554818E+03  0.00000000000E+00 0.  1.
         14    1    6    6    0    0 -0.29783318119E+01  0.12718588520E+02  0.29414273629E+01  0.13389732979E+02  0.00000000000E+00 0. -1.
         -5    1    3    3    0  503 -0.29103498821E+02 -0.25468110948E+02 -0.16283173493E+03  0.16742730428E+03  0.47000000000E+01 0.  1.
         11    1    4    4    0    0  0.53266830362E+02  0.68416642861E+01 -0.76698882835E+02  0.93631630420E+02  0.00000000000E+00 0. -1.
        -12    1    4    4    0    0  0.17716523613E+01  0.60155144841E+02 -0.45130227458E+02  0.75223119008E+02  0.00000000000E+00 0.  1.
</event>
<event>
12    1  0.8297444E-002  0.2368283E+03  0.7818608E-02  0.1122017E+00
         21   -1    0    0  503  502  0.00000000000E+00  0.00000000000E+00  0.64983943298E+03  0.64983943298E+03  0.00000000000E+00 0. -1.
         21   -1    0    0  501  503 -0.00000000000E+00 -0.00000000000E+00 -0.87101769406E+02  0.87101769406E+02  0.00000000000E+00 0.  1.
          6    2    1    2  501    0 -0.82335651397E+00  0.16365281964E+03  0.32036833464E+03  0.39807468154E+03  0.17042493641E+03 0.  0.
         24    2    3    3    0    0 -0.46750488958E+02  0.12107104559E+03  0.13757480430E+03  0.20479231372E+03  0.78544628607E+02 0.  0.
         -6    2    1    2    0  502  0.82335651397E+00 -0.16365281964E+03  0.24236932894E+03  0.33886652085E+03  0.17118616782E+03 0.  0.
        -24    2    5    5    0    0 -0.22684805976E+01 -0.15671977326E+03  0.26279655169E+03  0.31657329277E+03  0.81181209524E+02 0.  0.
          5    1    3    3  501    0  0.45927132444E+02  0.42581774049E+02  0.18279353034E+03  0.19328236782E+03  0.47000000000E+01 0. -1.
        -11    1    4    4    0    0 -0.14638139367E+02  0.71176431296E+02  0.23781855002E+02  0.76458721697E+02  0.00000000000E+00 0.  1.
         12    1    4    4    0    0 -0.32112349591E+02  0.49894614292E+02  0.11379294930E+03  0.12833359202E+03  0.00000000000E+00 0. -1.
         -5    1    5    5    0  502  0.30918371115E+01 -0.69330463754E+01 -0.20427222753E+02  0.22293228079E+02  0.47000000000E+01 0.  1.
         11    1    6    6    0    0  0.17522708541E+02 -0.18582491551E+02  0.92566989420E+01  0.27166906010E+02  0.00000000000E+00 0. -1.
        -12    1    6    6    0    0 -0.19791189139E+02 -0.13813728171E+03  0.25353985275E+03  0.28940638676E+03  0.00000000000E+00 0.  1.
</event>
<event>
12    1  0.8297444E-002  0.1882726E+03  0.7818608E-02  0.1160680E+00
         21   -1    0    0  501  502  0.00000000000E+00  0.00000000000E+00  0.45547578604E+03  0.45547578604E+03  0.00000000000E+00 0. -1.
         21   -1    0    0  502  503 -0.00000000000E+00 -0.00000000000E+00 -0.13664891795E+03  0.13664891795E+03  0.00000000000E+00 0. -1.
         -6    2    1    2    0  503  0.57767210454E+02  0.40985026276E+02 -0.36072339518E+02  0.19169709499E+03  0.17444122095E+03 0.  0.
        -24    2    3    3    0    0  0.65955850854E+02 -0.35967134484E+02 -0.27924462269E+01  0.10732689779E+03  0.76599322512E+02 0.  0.
          6    2    1    2  501    0 -0.57767210454E+02 -0.40985026276E+02  0.35489920760E+03  0.40042760900E+03  0.17138261146E+03 0.  0.
         24    2    5    5    0    0 -0.71051325651E+02 -0.18653398872E+02  0.11326916460E+03  0.15735902407E+03  0.80843791608E+02 0.  0.
          5    1    5    5  501    0  0.13284115197E+02 -0.22331627404E+02  0.24163004300E+03  0.24306858493E+03  0.47000000000E+01 0. -1.
        -13    1    6    6    0    0  0.16745177232E+02  0.31742949435E+00  0.68374546572E+01  0.18090121841E+02  0.00000000000E+00 0.  1.
         14    1    6    6    0    0 -0.87796502883E+02 -0.18970828366E+02  0.10643170995E+03  0.13926890223E+03  0.00000000000E+00 0. -1.
         -5    1    3    3    0  503 -0.81886404003E+01  0.76952160759E+02 -0.33279893292E+02  0.84370197195E+02  0.47000000000E+01 0.  1.
         13    1    4    4    0    0 -0.90379220401E+01 -0.24286871379E+02 -0.15758659470E+02  0.30329383516E+02  0.00000000000E+00 0. -1.
        -14    1    4    4    0    0  0.74993772894E+02 -0.11680263105E+02  0.12966213243E+02  0.76997514278E+02  0.00000000000E+00 0.  1.
</event>
<event>
12    1  0.8297444E-002  0.2281611E+03  0.7818608E-02  0.1127975E+00
         21   -1    0    0  501  502  0.00000000000E+00  0.00000000000E+00  0.13978021164E+04  0.13978021164E+04  0.00000000000E+00 0. -1.
         21   -1    0    0  502  503 -0.00000000000E+00 -0.00000000000E+00 -0.42462770438E+02  0.42462770438E+02  0.00000000000E+00 0.  1.
         -6    2    1    2    0  503 -0.13967834612E+03  0.55424756373E+02  0.93068050205E+03  0.95819370152E+03  0.17142645286E+03 0.  0.
        -24    2    3    3    0    0 -0.13200650234E+03 -0.14603123859E+02  0.53186886790E+03  0.55318065144E+03  0.74063301343E+02 0.  0.
          6    2    1    2  501    0  0.13967834612E+03 -0.55424756373E+02  0.42465884391E+03  0.48207118531E+03  0.17168444894E+03 0.  0.
         24    2    5    5    0    0  0.90457764734E+00 -0.21859609666E+02  0.94362751004E+02  0.12220679853E+03  0.74508469545E+02 0.  0.
          5    1    5    5  501    0  0.13877376847E+03 -0.33565146706E+02  0.33029609290E+03  0.35986438678E+03  0.47000000000E+01 0. -1.
        -13    1    6    6    0    0 -0.54770867149E+01 -0.20827378635E+02 -0.54262572401E+01  0.22208612008E+02  0.00000000000E+00 0.  1.
         14    1    6    6    0    0  0.63816643623E+01 -0.10322310311E+01  0.99789008244E+02  0.99998186520E+02  0.00000000000E+00 0. -1.
         -5    1    3    3    0  503 -0.76718437828E+01  0.70027880232E+02  0.39881163416E+03  0.40501305008E+03  0.47000000000E+01 0.  1.
         11    1    4    4    0    0 -0.69612155687E+02  0.56942968795E+01  0.39817279549E+03  0.40425221373E+03  0.00000000000E+00 0. -1.
        -12    1    4    4    0    0 -0.62394346651E+02 -0.20297420738E+02  0.13369607241E+03  0.14892843771E+03  0.00000000000E+00 0.  1.
</event>
<event>
12    1  0.8297444E-002  0.2087761E+03  0.7818608E-02  0.1142645E+00
         21   -1    0    0  503  502  0.00000000000E+00  0.00000000000E+00  0.40935039531E+02  0.40935039531E+02  0.00000000000E+00 0. -1.
         21   -1    0    0  501  503 -0.00000000000E+00 -0.00000000000E+00 -0.13965081648E+04  0.13965081648E+04  0.00000000000E+00 0. -1.
          6    2    1    2  501    0 -0.83121903876E+02 -0.82836611650E+02 -0.32673441713E+03  0.38774068862E+03  0.17267399092E+03 0.  0.
         24    2    3    3    0    0 -0.81722189478E+02 -0.64114321324E+01 -0.26719563720E+03  0.29073695889E+03  0.80092746322E+02 0.  0.
         -6    2    1    2    0  502  0.83121903876E+02  0.82836611650E+02 -0.10288387081E+04  0.10497025157E+04  0.17203234868E+03 0.  0.
        -24    2    5    5    0    0  0.18290135509E+02  0.18342700598E+02 -0.78180404923E+03  0.78624315366E+03  0.79307890872E+02 0.  0.
          5    1    3    3  501    0 -0.13997143979E+01 -0.76425179518E+02 -0.59538779931E+02  0.97003729724E+02  0.47000000000E+01 0. -1.
        -11    1    4    4    0    0 -0.41527177003E+02 -0.41264060399E+02 -0.17191912871E+03  0.18161336935E+03  0.00000000000E+00 0.  1.
         12    1    4    4    0    0 -0.40195012475E+02  0.34852628266E+02 -0.95276508490E+02  0.10912358954E+03  0.00000000000E+00 0. -1.
         -5    1    5    5    0  502  0.64831768367E+02  0.64493911052E+02 -0.24703465887E+03  0.26345936202E+03  0.47000000000E+01 0.  1.
         11    1    6    6    0    0  0.16608802397E+02 -0.19220284795E+02 -0.92799850637E+02  0.96213740926E+02  0.00000000000E+00 0. -1.
        -12    1    6    6    0    0  0.16813331127E+01  0.37562985393E+02 -0.68900419860E+03  0.69002941273E+03  0.00000000000E+00 0.  1.
</event>
<event>
12    1  0.8297444E-002  0.1941269E+03  0.7818608E-02  0.1154914E+00
         21   -1    0    0  501  502  0.00000000000E+00  0.00000000000E+00  0.58096254983E+03  0.58096254983E+03  0.00000000000E+00 0. -1.
         21   -1    0    0  502  503 -0.00000000000E+00 -0.00000000000E+00 -0.68949430491E+02  0.68949430491E+02  0.00000000000E+00 0.  1.
         -6    2    1    2    0  503  0.71819664903E+02 -0.55398443684E+02  0.17479199936E+03  0.26080616833E+03  0.17099872096E+03 0.  0.
        -24    2    3    3    0    0  0.91891288622E+02  0.10946880045E+02  0.12577311177E+03  0.17577962306E+03  0.80720239922E+02 0.  0.
          6    2    1    2  501    0 -0.71819664903E+02  0.55398443684E+02  0.33722111998E+03  0.38910581199E+03  0.17163390497E+03 0.  0.
         24    2    5    5    0    0 -0.34177509078E+02 -0.14553974821E+02  0.27217333367E+03  0.28632654728E+03  0.80775292075E+02 0.  0.
          5    1    5    5  501    0 -0.37642155825E+02  0.69952418505E+02  0.65047786312E+02  0.10277926471E+03  0.47000000000E+01 0. -1.
        -13    1    6    6    0    0  0.18860292637E+02 -0.53819837302E+01  0.18349627002E+02  0.26858614975E+02  0.00000000000E+00 0.  1.
         14    1    6    6    0    0 -0.53037801715E+02 -0.91719910908E+01  0.25382370666E+03  0.25946793231E+03  0.00000000000E+00 0. -1.
         -5    1    3    3    0  503 -0.20071623719E+02 -0.66345323729E+02  0.49018887596E+02  0.85026545270E+02  0.47000000000E+01 0.  1.
         13    1    4    4    0    0  0.38092044275E+02 -0.29158793067E+02  0.84010792597E+02  0.96742195153E+02  0.00000000000E+00 0. -1.
        -14    1    4    4    0    0  0.53799244347E+02  0.40105673112E+02  0.41762319170E+02  0.79037427910E+02  0.00000000000E+00 0.  1.
</event>
<event>
12    1  0.8297444E-002  0.1842402E+03  0.7818608E-02  0.1163910E+00
         21   -1    0    0  503  502  0.00000000000E+00  0.00000000000E+00  0.13021566969E+04  0.13021566969E+04  0.00000000000E+00 0. -1.
         21   -1    0    0  501  503 -0.00000000000E+00 -0.00000000000E+00 -0.55630563747E+02  0.55630563747E+02  0.00000000000E+00 0. -1.
          6    2    1    2  501    0  0.16897840111E+02  0.64551432905E+02  0.12811726756E+03  0.22440700414E+03  0.17173248024E+03 0.  0.
         24    2    3    3    0    0 -0.23840059975E+02 -0.22989836459E+02  0.71833290151E+02  0.11254536434E+03  0.80059705354E+02 0.  0.
         -6    2    1    2    0  502 -0.16897840111E+02 -0.64551432905E+02  0.11184088656E+04  0.11333802565E+04  0.17105551939E+03 0.  0.
        -24    2    5    5    0    0 -0.79670420783E+01  0.25191561967E+02  0.70559711927E+03  0.71080577529E+03  0.81728005582E+02 0.  0.
          5    1    3    3  501    0  0.40737900086E+02  0.87541269363E+02  0.56283977413E+02  0.11186163980E+03  0.47000000000E+01 0. -1.
        -13    1    4    4    0    0 -0.27842000720E+02 -0.24378840373E+02 -0.34277232703E+01  0.37165227684E+02  0.00000000000E+00 0.  1.
         14    1    4    4    0    0  0.40019407446E+01  0.13890039139E+01  0.75261013422E+02  0.75380136660E+02  0.00000000000E+00 0. -1.
         -5    1    5    5    0  502 -0.89307980325E+01 -0.89742994872E+02  0.41281174631E+03  0.42257448121E+03  0.47000000000E+01 0.  1.
         13    1    6    6    0    0 -0.37136318197E+01  0.25721670920E+02  0.70602045414E+03  0.70649860374E+03  0.00000000000E+00 0. -1.
        -14    1    6    6    0    0 -0.42534102586E+01 -0.53010895201E+00 -0.42333486763E+00  0.43071715475E+01  0.00000000000E+00 0.  1.
</event>
<event>
12    1  0.8297444E-002  0.1766432E+03  0.7818608E-02  0.1171208E+00
         21   -1    0    0  503  502  0.00000000000E+00  0.00000000000E+00  0.21274777600E+03  0.21274777600E+03  0.00000000000E+00 0. -1.
         21   -1    0    0  501  503 -0.00000000000E+00 -0.00000000000E+00 -0.43906752743E+03  0.43906752743E+03  0.00000000000E+00 0. -1.
          6    2    1    2  501    0 -0.30204145769E+02  0.27626132622E+02 -0.37934705437E+03  0.41845788581E+03  0.17183515621E+03 0.  0.
         24    2    3    3    0    0 -0.40972286895E+02 -0.47306947982E+02 -0.24286681370E+03  0.26231735447E+03  0.76872814706E+02 0.  0.
         -6    2    1    2    0  502  0.30204145769E+02 -0.27626132622E+02  0.15302730293E+03  0.23335741762E+03  0.17135587323E+03 0.  0.
        -24    2    5    5    0    0  0.35955927008E+02 -0.19341962855E+02  0.18218683538E+03  0.20214718230E+03  0.77488709588E+02 0.  0.
          5    1    3    3  501    0  0.10768141126E+02  0.74933080605E+02 -0.13648024067E+03  0.15614053134E+03  0.47000000000E+01 0. -1.
        -13    1    4    4    0    0  0.28791123326E+01 -0.11006555818E+02  0.14383461535E+01  0.11467449518E+02  0.00000000000E+00 0.  1.
         14    1    4    4    0    0 -0.43851399228E+02 -0.36300392164E+02 -0.24430515985E+03  0.25084990495E+03  0.00000000000E+00 0. -1.
         -5    1    5    5    0  502 -0.57517812393E+01 -0.82841697675E+01 -0.29159532446E+02  0.31210235318E+02  0.47000000000E+01 0.  1.
         13    1    6    6    0    0  0.44930858840E+02 -0.11848344189E+02  0.45746008039E+02  0.65206307882E+02  0.00000000000E+00 0. -1.
        -14    1    6    6    0    0 -0.89749318314E+01 -0.74936186661E+01  0.13644082734E+03  0.13694087442E+03  0.00000000000E+00 0.  1.
</event>
<event>
12    1  0.8297444E-002  0.2155131E+03  0.7818608E-02  0.1138120E+00
         21   -1    0    0  501  502  0.00000000000E+00  0.00000000000E+00  0.84919753583E+02  0.84919753583E+02  0.00000000000E+00 0. -1.
         21   -1    0    0  502  503 -0.00000000000E+00 -0.00000000000E+00 -0.56261060439E+03  0.56261060439E+03  0.00000000000E+00 0. -1.
         -6    2    1    2    0  503 -0.13091984627E+03 -0.33091792459E+01 -0.16595082946E+03  0.26854783396E+03  0.16561190932E+03 0.  0.
        -24    2    3    3    0    0 -0.15195735076E+03 -0.30385417499E+02 -0.12670662406E+03  0.21622291704E+03  0.81752499808E+02 0.  0.
          6    2    1    2  501    0  0.13091984627E+03  0.33091792459E+01 -0.31174002134E+03  0.37898252401E+03  0.17115769275E+03 0.  0.
         24    2    5    5    0    0  0.14470859223E+03  0.43905048495E+02 -0.23884299361E+03  0.29428175207E+03  0.81777405544E+02 0.  0.
          5    1    5    5  501    0 -0.13788745958E+02 -0.40595869250E+02 -0.72897027738E+02  0.84700771946E+02  0.47000000000E+01 0. -1.
        -13    1    6    6    0    0  0.90540466595E+02 -0.60850888908E+01 -0.88069398178E+02  0.12645482709E+03  0.00000000000E+00 0.  1.
         14    1    6    6    0    0  0.54168125634E+02  0.49990137386E+02 -0.15077359543E+03  0.16782692498E+03  0.00000000000E+00 0. -1.
         -5    1    3    3    0  503  0.21037504490E+02  0.27076238254E+02 -0.39244205396E+02  0.52324916916E+02  0.47000000000E+01 0.  1.
         11    1    4    4    0    0 -0.12926592050E+03 -0.48942079515E+02 -0.76219219699E+02  0.15784288011E+03  0.00000000000E+00 0. -1.
        -12    1    4    4    0    0 -0.22691430260E+02  0.18556662015E+02 -0.50487404365E+02  0.58380036929E+02  0.00000000000E+00 0.  1.
</event>
<event>
12    1  0.8297444E-002  0.1891542E+03  0.7818608E-02  0.1159601E+00
         21   -1    0    0  503  502  0.00000000000E+00  0.00000000000E+00  0.36768640545E+03  0.36768640545E+03  0.00000000000E+00 0.  1.
         21   -1    0    0  501  503 -0.00000000000E+00 -0.00000000000E+00 -0.15015112028E+03  0.15015112028E+03  0.00000000000E+00 0.  1.
          6    2    1    2  501    0 -0.59131009675E+02  0.46546744601E+02 -0.45747604977E+02  0.19460772736E+03  0.17354033667E+03 0.  0.
         24    2    3    3    0    0 -0.95577653043E+02  0.65160309674E+02 -0.58019223525E+02  0.15162511182E+03  0.79012597204E+02 0.  0.
         -6    2    1    2    0  502  0.59131009675E+02 -0.46546744601E+02  0.26328289015E+03  0.32322979837E+03  0.17174558677E+03 0.  0.
        -24    2    5    5    0    0  0.39188420141E+02 -0.10937726483E+02  0.47440332437E+02  0.10351223247E+03  0.82515640910E+02 0.  0.
          5    1    3    3  501    0  0.36446643368E+02 -0.18613565074E+02  0.12271618548E+02  0.42982615548E+02  0.47000000000E+01 0. -1.
        -13    1    4    4    0    0 -0.45838239299E+01  0.41425023873E+02 -0.10799453107E+01  0.41691849642E+02  0.00000000000E+00 0.  1.
         14    1    4    4    0    0 -0.90993829113E+02  0.23735285801E+02 -0.56939278214E+02  0.10993326217E+03  0.00000000000E+00 0. -1.
         -5    1    5    5    0  502  0.19942589534E+02 -0.35609018117E+02  0.21584255771E+03  0.21971756591E+03  0.47000000000E+01 0.  1.
         13    1    6    6    0    0  0.34654260248E+01 -0.21738919378E+02 -0.17828193016E+02  0.28327270597E+02  0.00000000000E+00 0. -1.
        -14    1    6    6    0    0  0.35722994116E+02  0.10801192895E+02  0.65268525453E+02  0.75184961870E+02  0.00000000000E+00 0.  1.
</event>
<event>
12    1  0.8297444E-002  0.1988785E+03  0.7818608E-02  0.1150873E+00
         21   -1    0    0  501  502  0.00000000000E+00  0.00000000000E+00  0.36085655436E+02  0.36085655436E+02  0.00000000000E+00 0. -1.
         21   -1    0    0  502  503 -0.00000000000E+00 -0.00000000000E+00 -0.13083900309E+04  0.13083900309E+04  0.00000000000E+00 0.  1.
         -6    2    1    2    0  503 -0.95655002753E+02 -0.27788594433E+01 -0.90881376723E+03  0.93013514663E+03  0.17335318247E+03 0.  0.
        -24    2    3    3    0    0 -0.87813640903E+02 -0.64847166799E+02 -0.63158815446E+03  0.64589916700E+03  0.79785628518E+02 0.  0.
          6    2    1    2  501    0  0.95655002753E+02  0.27788594433E+01 -0.36349060822E+03  0.41434053969E+03  0.17434178776E+03 0.  0.
         24    2    5    5    0    0  0.10673769052E+03 -0.51966909286E+02 -0.27856413912E+03  0.31258337624E+03  0.77568635767E+02 0.  0.
          5    1    5    5  501    0 -0.11082687771E+02  0.54745768730E+02 -0.84926469094E+02  0.10175716346E+03  0.47000000000E+01 0. -1.
        -11    1    6    6    0    0  0.11540177372E+03 -0.47689516842E+02 -0.27545070989E+03  0.30243173275E+03  0.00000000000E+00 0.  1.
         12    1    6    6    0    0 -0.86640832015E+01 -0.42773924443E+01 -0.31134292308E+01  0.10151643484E+02  0.00000000000E+00 0. -1.
         -5    1    3    3    0  503 -0.78413618501E+01  0.62068307355E+02 -0.27722561278E+03  0.28423597962E+03  0.47000000000E+01 0.  1.
         13    1    4    4    0    0 -0.14815139038E+02 -0.30775001243E+02 -0.63275924973E+02  0.71905714150E+02  0.00000000000E+00 0. -1.
        -14    1    4    4    0    0 -0.72998501865E+02 -0.34072165555E+02 -0.56831222948E+03  0.57399345285E+03  0.00000000000E+00 0.  1.
</event>
<event>
12    1  0.8297444E-002  0.2038099E+03  0.7818608E-02  0.1146714E+00
         21   -1    0    0  501  502  0.00000000000E+00  0.00000000000E+00  0.29621810028E+03  0.29621810028E+03  0.00000000000E+00 0.  1.
         21   -1    0    0  502  503 -0.00000000000E+00 -0.00000000000E+00 -0.18335193443E+03  0.18335193443E+03  0.00000000000E+00 0. -1.
         -6    2    1    2    0  503  0.83437144863E+02 -0.68193234328E+02 -0.60449868594E+02  0.21258569297E+03  0.17299253132E+03 0.  0.
        -24    2    3    3    0    0  0.68051888561E+02  0.24010714331E+02 -0.50718082143E+02  0.11848430123E+03  0.79111515231E+02 0.  0.
          6    2    1    2  501    0 -0.83437144863E+02  0.68193234328E+02  0.17331603444E+03  0.26698434175E+03  0.17213400766E+03 0.  0.
         24    2    5    5    0    0 -0.40169851545E+02  0.10769916596E+03  0.94726889138E+02  0.16884606652E+03  0.79517817688E+02 0.  0.
          5    1    5    5  501    0 -0.43267293319E+02 -0.39505931635E+02  0.78589145304E+02  0.98138275230E+02  0.47000000000E+01 0. -1.
        -11    1    6    6    0    0 -0.59183961247E+02  0.92926488140E+02  0.93890382930E+02  0.14475316050E+03  0.00000000000E+00 0.  1.
         12    1    6    6    0    0  0.19014109702E+02  0.14772677823E+02  0.83650620796E+00  0.24092906019E+02  0.00000000000E+00 0. -1.
         -5    1    3    3    0  503  0.15385256302E+02 -0.92203948660E+02 -0.97317864504E+01  0.94101391740E+02  0.47000000000E+01 0.  1.
         13    1    4    4    0    0  0.29324957528E+02 -0.28931651331E+01 -0.63176938497E+02  0.69711183438E+02  0.00000000000E+00 0. -1.
        -14    1    4    4    0    0  0.38726931033E+02  0.26903879465E+02  0.12458856353E+02  0.48773117792E+02  0.00000000000E+00 0.  1.
</event>
<event>
12    1  0.8297444E-002  0.2672678E+03  0.7818608E-02  0.1103157E+00
         21   -1    0    0  501  502  0.00000000000E+00  0.00000000000E+00  0.23844404237E+03  0.23844404237E+03  0.00000000000E+00 0. -1.
         21   -1    0    0  502  503 -0.00000000000E+00 -0.00000000000E+00 -0.48731889408E+03  0.48731889408E+03  0.00000000000E+00 0. -1.
         -6    2    1    2    0  503 -0.30718866200E+02  0.20285654080E+03 -0.35077108408E+03  0.43972988169E+03  0.16801068579E+03 0.  0.
        -24    2    3    3    0    0  0.51387757956E+01  0.21289580295E+03 -0.30295047209E+03  0.37893960117E+03  0.80406485221E+02 0.  0.
          6    2    1    2  501    0  0.30718866200E+02 -0.20285654080E+03  0.10189623238E+03  0.28603305476E+03  0.17128234397E+03 0.  0.
         24    2    5    5    0    0 -0.24141586889E+02 -0.36436568407E+02  0.20885569577E+02  0.92926622935E+02  0.79301390270E+02 0.  0.
          5    1    5    5  501    0  0.54860453089E+02 -0.16641997239E+03  0.81010662803E+02  0.19310643182E+03  0.47000000000E+01 0. -1.
        -11    1    6    6    0    0  0.35926128982E+00 -0.32409420743E+02 -0.24879799789E+02  0.40859565087E+02  0.00000000000E+00 0.  1.
         12    1    6    6    0    0 -0.24500848179E+02 -0.40271476645E+01  0.45765369366E+02  0.52067057848E+02  0.00000000000E+00 0. -1.
         -5    1    3    3    0  503 -0.35857641995E+02 -0.10039262155E+02 -0.47820611991E+02  0.60790280516E+02  0.47000000000E+01 0.  1.
         11    1    4    4    0    0  0.38933008637E+01  0.13330681970E+03 -0.24997004362E+03  0.28332117583E+03  0.00000000000E+00 0. -1.
        -12    1    4    4    0    0  0.12454749320E+01  0.79588983253E+02 -0.52980428475E+02  0.95618425340E+02  0.00000000000E+00 0.  1.
</event>
<event>
12    1  0.8297444E-002  0.2205986E+03  0.7818608E-02  0.1135314E+00
         21   -1    0    0  503  502  0.00000000000E+00  0.00000000000E+00  0.68110304440E+03  0.68110304440E+03  0.00000000000E+00 0. -1.
         21   -1    0    0  501  503 -0.00000000000E+00 -0.00000000000E+00 -0.58617554387E+03  0.58617554387E+03  0.00000000000E+00 0. -1.
          6    2    1    2  501    0 -0.72384959152E+02 -0.97519325066E+02 -0.54823099057E+03  0.58733991241E+03  0.17222471545E+03 0.  0.
         24    2    3    3    0    0 -0.77600372119E+02 -0.10288302245E+03 -0.55566584640E+03  0.57579275418E+03  0.78524065359E+02 0.  0.
         -6    2    1    2    0  502  0.72384959152E+02  0.97519325066E+02  0.64315849110E+03  0.67993867586E+03  0.18415796802E+03 0.  0.
        -24    2    5    5    0    0 -0.77134990089E+01  0.10519774397E+03  0.30351897226E+03  0.33086588421E+03  0.78882212228E+02 0.  0.
          5    1    3    3  501    0  0.52154129666E+01  0.53636973845E+01  0.74348558302E+01  0.11547158233E+02  0.47000000000E+01 0. -1.
        -11    1    4    4    0    0 -0.58554847056E+02 -0.33757406205E+02 -0.16011809095E+03  0.17379883669E+03  0.00000000000E+00 0.  1.
         12    1    4    4    0    0 -0.19045525063E+02 -0.69125616245E+02 -0.39554775546E+03  0.40199391749E+03  0.00000000000E+00 0. -1.
         -5    1    5    5    0  502  0.80098458161E+02 -0.76784189029E+01  0.33963951883E+03  0.34907279165E+03  0.47000000000E+01 0.  1.
         11    1    6    6    0    0  0.31989292852E+02  0.68149038713E+02  0.14631531811E+03  0.16454719277E+03  0.00000000000E+00 0. -1.
        -12    1    6    6    0    0 -0.39702791861E+02  0.37048705256E+02  0.15720365415E+03  0.16631869144E+03  0.00000000000E+00 0.  1.
</event>
<event>
12    1  0.8297444E-002  0.1772577E+03  0.7818608E-02  0.1170505E+00
         21   -1    0    0  501  502  0.00000000000E+00  0.00000000000E+00  0.78514561833E+03  0.78514561833E+03  0.00000000000E+00 0.  1.
         21   -1    0    0  502  503 -0.00000000000E+00 -0.00000000000E+00 -0.11075585234E+03  0.11075585234E+03  0.00000000000E+00 0.  1.
         -6    2    1    2    0  503 -0.94737151983E+01  0.42333082459E+02 -0.20874605062E+02  0.17839687061E+03  0.17177850027E+03 0.  0.
        -24    2    3    3    0    0 -0.96558048646E+01  0.68582403709E+02  0.38735548120E+02  0.11309357524E+03  0.80578740417E+02 0.  0.
          6    2    1    2  501    0  0.94737151983E+01 -0.42333082459E+02  0.69526437105E+03  0.71750460005E+03  0.17186757779E+03 0.  0.
         24    2    5    5    0    0  0.87730125151E+01 -0.92183264148E+02  0.45972184571E+03  0.47669782514E+03  0.85568225040E+02 0.  0.
          5    1    5    5  501    0  0.70070268323E+00  0.49850181689E+02  0.23554252535E+03  0.24080677492E+03  0.47000000000E+01 0. -1.
        -11    1    6    6    0    0  0.44555703641E+02 -0.51346903353E+02  0.19630625548E+03  0.20774470186E+03  0.00000000000E+00 0.  1.
         12    1    6    6    0    0 -0.35782691126E+02 -0.40836360795E+02  0.26341559023E+03  0.26895312328E+03  0.00000000000E+00 0. -1.
         -5    1    3    3    0  503  0.18208966632E+00 -0.26249321250E+02 -0.59610153182E+02  0.65303295362E+02  0.47000000000E+01 0.  1.
         13    1    4    4    0    0 -0.18505560000E+02  0.81692959758E+02  0.15811689014E+02  0.85242037366E+02  0.00000000000E+00 0. -1.
        -14    1    4    4    0    0  0.88497551349E+01 -0.13110556049E+02  0.22923859106E+02  0.27851537878E+02  0.00000000000E+00 0.  1.
</event>
<event>
12    1  0.8297444E-002  0.2879198E+03  0.7818608E-02  0.1091567E+00
         21   -1    0    0  503  502  0.00000000000E+00  0.00000000000E+00  0.14008373593E+04  0.14008373593E+04  0.00000000000E+00 0. -1.
         21   -1    0    0  501  503 -0.00000000000E+00 -0.00000000000E+00 -0.76508821508E+02  0.76508821508E+02  0.00000000000E+00 0.  1.
          6    2    1    2  501    0  0.12954762183E+03  0.19192249692E+03  0.10165820332E+04  0.10565684275E+04  0.17111686250E+03 0.  0.
         24    2    3    3    0    0  0.19189235018E+02  0.43192531571E+02  0.21373472668E+03  0.23262336640E+03  0.78722777407E+02 0.  0.
         -6    2    1    2    0  502 -0.12954762183E+03 -0.19192249692E+03  0.30774650461E+03  0.42077775332E+03  0.16949683019E+03 0.  0.
        -24    2    5    5    0    0 -0.10340101437E+03 -0.17911819804E+03  0.16781773684E+03  0.27777514774E+03  0.78874211662E+02 0.  0.
          5    1    3    3  501    0  0.11035838681E+03  0.14872996535E+03  0.80284730652E+03  0.82394506110E+03  0.47000000000E+01 0. -1.
        -13    1    4    4    0    0  0.45524570041E+02  0.25288771148E+02  0.17442581509E+03  0.18203398967E+03  0.00000000000E+00 0.  1.
         14    1    4    4    0    0 -0.26335335023E+02  0.17903760423E+02  0.39308911585E+02  0.50589376731E+02  0.00000000000E+00 0. -1.
         -5    1    5    5    0  502 -0.26146607464E+02 -0.12804298876E+02  0.13992876777E+03  0.14300260558E+03  0.47000000000E+01 0.  1.
         11    1    6    6    0    0 -0.19096569726E+01  0.60325874352E+01 -0.21900426356E+01  0.66959082776E+01  0.00000000000E+00 0. -1.
        -12    1    6    6    0    0 -0.10149135739E+03 -0.18515078548E+03  0.17000777947E+03  0.27107923947E+03  0.00000000000E+00 0.  1.
</event>
<event>
12    1  0.8297444E-002  0.2857646E+03  0.7818608E-02  0.1092594E+00
         21   -1    0    0  501  502  0.00000000000E+00  0.00000000000E+00  0.47515398923E+03  0.47515398923E+03  0.00000000000E+00 0. -1.
         21   -1    0    0  502  503 -0.00000000000E+00 -0.00000000000E+00 -0.35756495773E+03  0.35756495773E+03  0.00000000000E+00 0. -1.
         -6    2    1    2    0  503 -0.13480256660E+03 -0.18262635767E+03 -0.24131182750E+03  0.37394749414E+03  0.17343936060E+03 0.  0.
        -24    2    3    3    0    0 -0.94756777204E+02 -0.11452956523E+03 -0.54552832137E+02  0.17111295384E+03  0.64867274800E+02 0.  0.
          6    2    1    2  501    0  0.13480256660E+03  0.18262635767E+03  0.35890085900E+03  0.45877145282E+03  0.17360098173E+03 0.  0.
         24    2    5    5    0    0  0.10179827108E+03  0.20506428448E+03  0.32819919220E+03  0.40820044901E+03  0.80614192619E+02 0.  0.
          5    1    5    5  501    0  0.33004295518E+02 -0.22437926808E+02  0.30701666803E+02  0.50571003812E+02  0.47000000000E+01 0. -1.
        -11    1    6    6    0    0 -0.13494131097E+01  0.73576791528E+02  0.12559445023E+03  0.14556555601E+03  0.00000000000E+00 0.  1.
         12    1    6    6    0    0  0.10314768419E+03  0.13148749295E+03  0.20260474197E+03  0.26263489300E+03  0.00000000000E+00 0. -1.
         -5    1    3    3    0  503 -0.40045789392E+02 -0.68096792435E+02 -0.18675899536E+03  0.20283454029E+03  0.47000000000E+01 0.  1.
         13    1    4    4    0    0 -0.38043945353E+02 -0.24475118621E+02 -0.45728817198E+02  0.64323385575E+02  0.00000000000E+00 0. -1.
        -14    1    4    4    0    0 -0.56712831851E+02 -0.90054446612E+02 -0.88240149396E+01  0.10678956827E+03  0.00000000000E+00 0.  1.
</event>
<event>
12    1  0.8297444E-002  0.1751148E+03  0.7818608E-02  0.1172717E+00
         21   -1    0    0  503  502  0.00000000000E+00  0.00000000000E+00  0.31446953999E+02  0.31446953999E+02  0.00000000000E+00 0.  1.
         21   -1    0    0  501  503 -0.00000000000E+00 -0.00000000000E+00 -0.13270137422E+04  0.13270137422E+04  0.00000000000E+00 0.  1.
          6    2    1    2  501    0 -0.35953333918E+02  0.48193272442E+01 -0.99810859321E+03  0.10132845437E+04  0.17090621544E+03 0.  0.
         24    2    3    3    0    0 -0.67415061104E+02  0.48477749877E+02 -0.78500767102E+03  0.79344371220E+03  0.80131131124E+02 0.  0.
         -6    2    1    2    0  502  0.35953333918E+02 -0.48193272442E+01 -0.29745819502E+03  0.34517615255E+03  0.17131646264E+03 0.  0.
        -24    2    5    5    0    0  0.34721154378E+02 -0.39701326190E+02 -0.81232405658E+02  0.12610092780E+03  0.80752624723E+02 0.  0.
          5    1    3    3  501    0  0.31461727186E+02 -0.43658422633E+02 -0.21310092219E+03  0.21984083148E+03  0.47000000000E+01 0. -1.
        -13    1    4    4    0    0 -0.57699527299E+02  0.17769453181E+02 -0.69900983568E+03  0.70161224283E+03  0.00000000000E+00 0.  1.
         14    1    4    4    0    0 -0.97155338056E+01  0.30708296696E+02 -0.85997835342E+02  0.91831469370E+02  0.00000000000E+00 0. -1.
         -5    1    5    5    0  502  0.12321795401E+01  0.34881998946E+02 -0.21622578936E+03  0.21907522476E+03  0.47000000000E+01 0.  1.
         13    1    6    6    0    0 -0.75418489409E+01  0.19986694491E+02 -0.29905842122E+02  0.36751963691E+02  0.00000000000E+00 0. -1.
        -14    1    6    6    0    0  0.42263003319E+02 -0.59688020681E+02 -0.51326563536E+02  0.89348964105E+02  0.00000000000E+00 0.  1.
</event>
<event>
12    1  0.8297444E-002  0.1798427E+03  0.7818608E-02  0.1168341E+00
         21   -1    0    0  501  502  0.00000000000E+00  0.00000000000E+00  0.65335289042E+03  0.65335289042E+03  0.00000000000E+00 0. -1.
         21   -1    0    0  502  503 -0.00000000000E+00 -0.00000000000E+00 -0.54884490114E+02  0.54884490114E+02  0.00000000000E+00 0. -1.
         -6    2    1    2    0  503 -0.16655667405E+02  0.48122453570E+02  0.18514456929E+03  0.25811220648E+03  0.17248251448E+03 0.  0.
        -24    2    3    3    0    0  0.33195671911E+02  0.23613582992E+00  0.31694530403E+02  0.89745761211E+02  0.77121657167E+02 0.  0.
          6    2    1    2  501    0  0.16655667405E+02 -0.48122453570E+02  0.41332383101E+03  0.45012517405E+03  0.17083003610E+03 0.  0.
         24    2    5    5    0    0  0.30563205558E+02  0.33253034610E+02  0.17572892537E+03  0.19855248300E+03  0.80638448951E+02 0.  0.
          5    1    5    5  501    0 -0.13907538154E+02 -0.81375488180E+02  0.23759490564E+03  0.25157269105E+03  0.47000000000E+01 0. -1.
        -13    1    6    6    0    0  0.19927806389E+01  0.15436008655E+02 -0.36948907519E+01  0.15996679517E+02  0.00000000000E+00 0.  1.
         14    1    6    6    0    0  0.28570424919E+02  0.17817025955E+02  0.17942381612E+03  0.18255580349E+03  0.00000000000E+00 0. -1.
         -5    1    3    3    0  503 -0.49851339316E+02  0.47886317740E+02  0.15345003889E+03  0.16836644527E+03  0.47000000000E+01 0.  1.
         11    1    4    4    0    0 -0.55555508276E+01  0.23518487657E+02 -0.11905271263E+02  0.26939170190E+02  0.00000000000E+00 0. -1.
        -12    1    4    4    0    0  0.38751222739E+02 -0.23282351827E+02  0.43599801666E+02  0.62806591021E+02  0.00000000000E+00 0.  1.
</event>
<event>
12    1  0.8297444E-002  0.1817799E+03  0.7818608E-02  0.1167277E+00
         21   -1    0    0  503  502  0.00000000000E+00  0.00000000000E+00  0.10544996919E+03  0.10544996919E+03  0.00000000000E+00 0. -1.
         21   -1    0    0  501  503 -0.00000000000E+00 -0.00000000000E+00 -0.39375782183E+03  0.39375782183E+03  0.00000000000E+00 0. -1.
          6    2    1    2  501    0 -0.21370512853E+02  0.55459426668E+02 -0.26113767134E+03  0.31540860771E+03  0.16660510075E+03 0.  0.
         24    2    3    3    0    0 -0.27368012350E+01 -0.31656697646E+02 -0.93190706823E+02  0.12523840180E+03  0.77398403470E+02 0.  0.
         -6    2    1    2    0  502  0.21370512853E+02 -0.55459426668E+02 -0.27170181295E+02  0.18379918331E+03  0.17178903984E+03 0.  0.
        -24    2    5    5    0    0  0.80183320762E+02 -0.49687494690E+02 -0.23862140278E+02  0.12442499103E+03  0.77549755629E+02 0.  0.
          5    1    3    3  501    0 -0.18633711618E+02  0.87116124315E+02 -0.16794696452E+03  0.19017020591E+03  0.47000000000E+01 0. -1.
        -13    1    4    4    0    0  0.14611540751E+02  0.14019944508E+02 -0.26649260828E+00  0.20251592171E+02  0.00000000000E+00 0.  1.
         14    1    4    4    0    0 -0.17348341986E+02 -0.45676642155E+02 -0.92924214215E+02  0.10498680963E+03  0.00000000000E+00 0. -1.
         -5    1    5    5    0  502 -0.58812807910E+02 -0.57719319786E+01 -0.33080410164E+01  0.59374192275E+02  0.47000000000E+01 0.  1.
         11    1    6    6    0    0  0.19374447210E+02 -0.41383643437E+02  0.19082598225E+02  0.49518892394E+02  0.00000000000E+00 0. -1.
        -12    1    6    6    0    0  0.60808873553E+02 -0.83038512521E+01 -0.42944738504E+02  0.74906098640E+02  0.00000000000E+00 0.  1.
</event>
<event>
12    1  0.8297444E-002  0.1846150E+03  0.7818608E-02  0.1163895E+00
         21   -1    0    0  501  502  0.00000000000E+00  0.00000000000E+00  0.27005337161E+03  0.27005337161E+03  0.00000000000E+00 0.  1.
         21   -1    0    0  502  503 -0.00000000000E+00 -0.00000000000E+00 -0.14233642741E+03  0.14233642741E+03  0.00000000000E+00 0.  1.
         -6    2    1    2    0  503 -0.56163557255E+02 -0.38319987849E+02  0.13591501664E+03  0.22759281653E+03  0.16941910092E+03 0.  0.
        -24    2    3    3    0    0 -0.74878603932E+02 -0.80267190030E+02  0.99701345986E+02  0.16891283114E+03  0.80879904862E+02 0.  0.
          6    2    1    2  501    0  0.56163557255E+02  0.38319987849E+02 -0.81980724504E+01  0.18479698249E+03  0.17163900988E+03 0.  0.
         24    2    5    5    0    0 -0.94977354337E+01  0.41295447168E+02 -0.53741709512E+02  0.10469347700E+03  0.79227721468E+02 0.  0.
          5    1    5    5  501    0  0.65661292689E+02 -0.29754593187E+01  0.45543637061E+02  0.80103505494E+02  0.47000000000E+01 0. -1.
        -11    1    6    6    0    0  0.26514240154E+02  0.46099295484E+02 -0.27448134017E+02  0.59846052803E+02  0.00000000000E+00 0.  1.
         12    1    6    6    0    0 -0.36011975588E+02 -0.48038483159E+01 -0.26293575495E+02  0.44847424192E+02  0.00000000000E+00 0. -1.
         -5    1    3    3    0  503  0.18715046677E+02  0.41947202181E+02  0.36213670657E+02  0.58679985390E+02  0.47000000000E+01 0.  1.
         13    1    4    4    0    0 -0.58069322259E+02 -0.77134185555E+01  0.25851448214E+02  0.64029996003E+02  0.00000000000E+00 0. -1.
        -14    1    4    4    0    0 -0.16809281673E+02 -0.72553771474E+02  0.73849897773E+02  0.10488283514E+03  0.00000000000E+00 0.  1.
</event>
<event>
12    1  0.8297444E-002  0.1737553E+03  0.7818608E-02  0.1174202E+00
         21   -1    0    0  503  502  0.00000000000E+00  0.00000000000E+00  0.10018845986E+03  0.10018845986E+03  0.00000000000E+00 0. -1.
         21   -1    0    0  501  503 -0.00000000000E+00 -0.00000000000E+00 -0.37570538467E+03  0.37570538467E+03  0.00000000000E+00 0. -1.
          6    2    1    2  501    0  0.15533999591E+02 -0.10867777212E+02 -0.24492351992E+03  0.30029725798E+03  0.17271797480E+03 0.  0.
         24    2    3    3    0    0  0.76781726366E+02 -0.42485317550E+01 -0.16913196054E+03  0.20251408500E+03  0.80578229203E+02 0.  0.
         -6    2    1    2    0  502 -0.15533999591E+02  0.10867777212E+02 -0.30593404891E+02  0.17559658654E+03  0.17186852841E+03 0.  0.
        -24    2    5    5    0    0  0.37871989963E+02 -0.22370493367E+02  0.23011297477E+02  0.92816537818E+02  0.78426164535E+02 0.  0.
          5    1    3    3  501    0 -0.61247726775E+02 -0.66192454572E+01 -0.75791559375E+02  0.97783172979E+02  0.47000000000E+01 0. -1.
        -11    1    4    4    0    0  0.64419028148E+02  0.11923185779E+02 -0.52042470293E+02  0.83668346828E+02  0.00000000000E+00 0.  1.
         12    1    4    4    0    0  0.12362698217E+02 -0.16171717534E+02 -0.11708949025E+03  0.11884573818E+03  0.00000000000E+00 0. -1.
         -5    1    5    5    0  502 -0.53405989554E+02  0.33238270579E+02 -0.53604702368E+02  0.82780048727E+02  0.47000000000E+01 0.  1.
         13    1    6    6    0    0  0.71289752093E+01  0.27803251693E+02 -0.22274134097E+01  0.28788964253E+02  0.00000000000E+00 0. -1.
        -14    1    6    6    0    0  0.30743014754E+02 -0.50173745060E+02  0.25238710886E+02  0.64027573565E+02  0.00000000000E+00 0.  1.
</event>
<event>
12    1  0.8297444E-002  0.1746771E+03  0.7818608E-02  0.1174328E+00
         21   -1    0    0  501  502  0.00000000000E+00  0.00000000000E+00  0.95265643793E+02  0.95265643793E+02  0.00000000000E+00 0. -1.
         21   -1    0    0  502  503 -0.00000000000E+00 -0.00000000000E+00 -0.34823468329E+03  0.34823468329E+03  0.00000000000E+00 0. -1.
         -6    2    1    2    0  503  0.16762921058E+02  0.26669361757E+02 -0.55831778520E+02  0.18338287435E+03  0.17181338927E+03 0.  0.
        -24    2    3    3    0    0 -0.38100323418E+02  0.55462044988E+02 -0.62376381325E+02  0.12090154891E+03  0.78731813795E+02 0.  0.
          6    2    1    2  501    0 -0.16762921058E+02 -0.26669361757E+02 -0.19713726098E+03  0.26011745274E+03  0.16675052976E+03 0.  0.
         24    2    5    5    0    0 -0.38868994924E+01 -0.46289667456E+02 -0.35374837730E+02  0.96593999063E+02  0.76949205387E+02 0.  0.
          5    1    5    5  501    0 -0.12876021565E+02  0.19620305699E+02 -0.16176242325E+03  0.16352345368E+03  0.47000000000E+01 0. -1.
        -13    1    6    6    0    0  0.39627006506E+00 -0.61265888655E+02 -0.46949580325E+02  0.77187623589E+02  0.00000000000E+00 0.  1.
         14    1    6    6    0    0 -0.42831695574E+01  0.14976221199E+02  0.11574742595E+02  0.19406375473E+02  0.00000000000E+00 0. -1.
         -5    1    3    3    0  503  0.54863244475E+02 -0.28792683231E+02  0.65446028052E+01  0.62481325433E+02  0.47000000000E+01 0.  1.
         11    1    4    4    0    0 -0.10680694369E+02 -0.17934820529E+02 -0.19651180112E+00  0.20875191891E+02  0.00000000000E+00 0. -1.
        -12    1    4    4    0    0 -0.27419629049E+02  0.73396865517E+02 -0.62179869524E+02  0.10002635702E+03  0.00000000000E+00 0.  1.
</event>
<event>
12    1  0.8297444E-002  0.2109576E+03  0.7818608E-02  0.1140848E+00
         21   -1    0    0  503  502  0.00000000000E+00  0.00000000000E+00  0.18790283516E+03  0.18790283516E+03  0.00000000000E+00 0.  1.
         21   -1    0    0  501  503 -0.00000000000E+00 -0.00000000000E+00 -0.30804417098E+03  0.30804417098E+03  0.00000000000E+00 0.  1.
          6    2    1    2  501    0 -0.42731810788E+02 -0.11401477738E+03 -0.17944922825E+03  0.27681109433E+03  0.17203772642E+03 0.  0.
         24    2    3    3    0    0 -0.16553081677E+02  0.91976615711E+00 -0.12108873330E+03  0.14519303886E+03  0.78381673357E+02 0.  0.
         -6    2    1    2    0  502  0.42731810788E+02  0.11401477738E+03  0.59307892432E+02  0.21913591181E+03  0.17227229791E+03 0.  0.
        -24    2    5    5    0    0  0.86782035648E+02  0.11548768331E+03  0.39707574740E+02  0.17067093254E+03  0.81751752356E+02 0.  0.
          5    1    3    3  501    0 -0.26178729110E+02 -0.11493454353E+03 -0.58360494946E+02  0.13161805547E+03  0.47000000000E+01 0. -1.
        -11    1    4    4    0    0  0.29354209117E+02 -0.10322376648E+02 -0.33884665556E+02  0.46004256459E+02  0.00000000000E+00 0.  1.
         12    1    4    4    0    0 -0.45907290794E+02  0.11242142805E+02 -0.87204067748E+02  0.99188782403E+02  0.00000000000E+00 0. -1.
         -5    1    5    5    0  502 -0.44050224860E+02 -0.14729059353E+01  0.19600317691E+02  0.48464979271E+02  0.47000000000E+01 0.  1.
         13    1    6    6    0    0  0.36102432164E+02  0.76613775297E+00  0.26021134583E+02  0.44509235224E+02  0.00000000000E+00 0. -1.
        -14    1    6    6    0    0  0.50679603484E+02  0.11472154556E+03  0.13686440157E+02  0.12616169731E+03  0.00000000000E+00 0.  1.
</event>
<event>
12    1  0.8297444E-002  0.2600352E+03  0.7818608E-02  0.1107122E+00
         21   -1    0    0  501  502  0.00000000000E+00  0.00000000000E+00  0.71994114867E+02  0.71994114867E+02  0.00000000000E+00 0. -1.
         21   -1    0    0  502  503 -0.00000000000E+00 -0.00000000000E+00 -0.11575823995E+04  0.11575823995E+04  0.00000000000E+00 0. -1.
         -6    2    1    2    0  503 -0.17490087775E+03  0.86841400251E+02 -0.80981104624E+03  0.85053639807E+03  0.17171630089E+03 0.  0.
        -24    2    3    3    0    0 -0.14503308831E+03  0.10210433352E+03 -0.78086031002E+03  0.80597994954E+03  0.91656771011E+02 0.  0.
          6    2    1    2  501    0  0.17490087775E+03 -0.86841400251E+02 -0.27577723835E+03  0.37904011626E+03  0.17171656503E+03 0.  0.
         24    2    5    5    0    0  0.19745501154E+03 -0.69296086870E+02 -0.21352176025E+03  0.31037890795E+03  0.83385221490E+02 0.  0.
          5    1    5    5  501    0 -0.22554133791E+02 -0.17545313381E+02 -0.62255478103E+02  0.68661208310E+02  0.47000000000E+01 0. -1.
        -11    1    6    6    0    0  0.38164748209E+02 -0.19578012573E+02 -0.48132113822E+01  0.43162641092E+02  0.00000000000E+00 0.  1.
         12    1    6    6    0    0  0.15929026333E+03 -0.49718074297E+02 -0.20870854887E+03  0.26721626686E+03  0.00000000000E+00 0. -1.
         -5    1    3    3    0  503 -0.29867789433E+02 -0.15262933264E+02 -0.28950736222E+02  0.44556448527E+02  0.47000000000E+01 0.  1.
         11    1    4    4    0    0 -0.89292075624E+02  0.12588969562E+02 -0.44143321476E+03  0.45054948675E+03  0.00000000000E+00 0. -1.
        -12    1    4    4    0    0 -0.55741012689E+02  0.89515363954E+02 -0.33942709526E+03  0.35543046279E+03  0.00000000000E+00 0.  1.
</event>
<event>
12    1  0.8297444E-002  0.2336882E+03  0.7818608E-02  0.1124189E+00
         21   -1    0    0  501  502  0.00000000000E+00  0.00000000000E+00  0.15525456253E+03  0.15525456253E+03  0.00000000000E+00 0. -1.
         21   -1    0    0  502  503 -0.00000000000E+00 -0.00000000000E+00 -0.44642783985E+03  0.44642783985E+03  0.00000000000E+00 0. -1.
         -6    2    1    2    0  503 -0.15429139908E+03 -0.32535454348E+02 -0.28505436392E+03  0.36860025221E+03  0.17246960289E+03 0.  0.
        -24    2    3    3    0    0 -0.10988113875E+03 -0.49592327049E+02 -0.10469440226E+03  0.18201243402E+03  0.87374737299E+02 0.  0.
          6    2    1    2  501    0  0.15429139908E+03  0.32535454348E+02 -0.61189134030E+01  0.23308215018E+03  0.17153849716E+03 0.  0.
         24    2    5    5    0    0  0.26781594528E+02 -0.28984613347E+02 -0.25596569737E+02  0.90096353387E+02  0.76842741329E+02 0.  0.
          5    1    5    5  501    0  0.12750980456E+03  0.61520067695E+02  0.19477656334E+02  0.14298579679E+03  0.47000000000E+01 0. -1.
        -11    1    6    6    0    0  0.14020343289E+01 -0.15020155594E+02 -0.49995851551E+02  0.52222178686E+02  0.00000000000E+00 0.  1.
         12    1    6    6    0    0  0.25379560199E+02 -0.13964457753E+02  0.24399281814E+02  0.37874174701E+02  0.00000000000E+00 0. -1.
         -5    1    3    3    0  503 -0.44410260336E+02  0.17056872701E+02 -0.18035996166E+03  0.18658781820E+03  0.47000000000E+01 0.  1.
         11    1    4    4    0    0 -0.50433552586E+02 -0.36063514232E+01 -0.93129236140E+02  0.10596982411E+03  0.00000000000E+00 0. -1.
        -12    1    4    4    0    0 -0.59447586161E+02 -0.45985975626E+02 -0.11565166117E+02  0.76042609910E+02  0.00000000000E+00 0.  1.
</event>
<event>
12    1  0.8297444E-002  0.2055418E+03  0.7818608E-02  0.1145378E+00
         21   -1    0    0  503  502  0.00000000000E+00  0.00000000000E+00  0.80324868754E+03  0.80324868754E+03  0.00000000000E+00 0.  1.
         21   -1    0    0  501  503 -0.00000000000E+00 -0.00000000000E+00 -0.55154467111E+02  0.55154467111E+02  0.00000000000E+00 0. -1.
          6    2    1    2  501    0 -0.10828659684E+03 -0.29589703372E+02  0.47257603830E+03  0.51534020651E+03  0.17217978649E+03 0.  0.
         24    2    3    3    0    0 -0.84877545887E+02 -0.81466962327E+02  0.27605095190E+03  0.31068578256E+03  0.80501327253E+02 0.  0.
         -6    2    1    2    0  502  0.10828659684E+03  0.29589703372E+02  0.27551818213E+03  0.34306294814E+03  0.17082265687E+03 0.  0.
        -24    2    5    5    0    0  0.14358730915E+02 -0.28985368530E+02  0.15829891826E+03  0.18176840741E+03  0.83275936912E+02 0.  0.
          5    1    3    3  501    0 -0.23409050954E+02  0.51877258955E+02  0.19652508639E+03  0.20465442396E+03  0.47000000000E+01 0. -1.
        -11    1    4    4    0    0  0.57980540175E+01  0.68649706908E+01  0.56868593355E+02  0.57574144919E+02  0.00000000000E+00 0.  1.
         12    1    4    4    0    0 -0.90675599905E+02 -0.88331933018E+02  0.21918235855E+03  0.25311163764E+03  0.00000000000E+00 0. -1.
         -5    1    5    5    0  502  0.93927865926E+02  0.58575071902E+02  0.11721926388E+03  0.16129454073E+03  0.47000000000E+01 0.  1.
         13    1    6    6    0    0  0.32452824745E+00 -0.18513596568E+02  0.16267012034E+03  0.16372057485E+03  0.00000000000E+00 0. -1.
        -14    1    6    6    0    0  0.14034202668E+02 -0.10471771962E+02 -0.43712020841E+01  0.18047832562E+02  0.00000000000E+00 0.  1.
</event>
<event>
12    1  0.8297444E-002  0.1791239E+03  0.7818608E-02  0.1169227E+00
         21   -1    0    0  503  502  0.00000000000E+00  0.00000000000E+00  0.47322314228E+03  0.47322314228E+03  0.00000000000E+00 0. -1.
         21   -1    0    0  501  503 -0.00000000000E+00 -0.00000000000E+00 -0.84766195358E+02  0.84766195358E+02  0.00000000000E+00 0. -1.
          6    2    1    2  501    0 -0.16216177695E+02 -0.38451165717E+02  0.67224430522E+02  0.19132304046E+03  0.17419507797E+03 0.  0.
         24    2    3    3    0    0  0.35259975768E+02 -0.69972607683E+02  0.65401510945E+02  0.13075234859E+03  0.81727518680E+02 0.  0.
         -6    2    1    2    0  502  0.16216177695E+02  0.38451165717E+02  0.32123251640E+03  0.36666629717E+03  0.17179169749E+03 0.  0.
        -24    2    5    5    0    0 -0.55853699929E+02  0.38313641679E+02  0.18866244902E+03  0.21569941690E+03  0.79656436321E+02 0.  0.
          5    1    3    3  501    0 -0.51476153463E+02  0.31521441965E+02  0.18229195765E+01  0.60570691879E+02  0.47000000000E+01 0. -1.
        -11    1    4    4    0    0 -0.87189288081E+01  0.98964668175E+01  0.30310707777E+02  0.33055994630E+02  0.00000000000E+00 0.  1.
         12    1    4    4    0    0  0.43978904577E+02 -0.79869074500E+02  0.35090803169E+02  0.97696353956E+02  0.00000000000E+00 0. -1.
         -5    1    5    5    0  502  0.72069877624E+02  0.13752403846E+00  0.13257006738E+03  0.15096688027E+03  0.47000000000E+01 0.  1.
         13    1    6    6    0    0 -0.62731314484E+01 -0.44343213618E+01  0.12209122680E+03  0.12233267367E+03  0.00000000000E+00 0. -1.
        -14    1    6    6    0    0 -0.49580568481E+02  0.42747963041E+02  0.66571222215E+02  0.93366743235E+02  0.00000000000E+00 0.  1.
</event>
<event>
12    1  0.8297444E-002  0.1865012E+03  0.7818608E-02  0.1161735E+00
         21   -1    0    0  503  502  0.00000000000E+00  0.00000000000E+00  0.15563019574E+03  0.15563019574E+03  0.00000000000E+00 0.  1.
         21   -1    0    0  501  503 -0.00000000000E+00 -0.00000000000E+00 -0.52847672051E+03  0.52847672051E+03  0.00000000000E+00 0.  1.
          6    2    1    2  501    0 -0.82526243379E+01 -0.71202753578E+02 -0.44637248117E+03  0.48363551952E+03  0.17180508103E+03 0.  0.
         24    2    3    3    0    0  0.11284302102E+02 -0.72502234662E+00 -0.81437876685E+02  0.11141494292E+03  0.75188434049E+02 0.  0.
         -6    2    1    2    0  502  0.82526243379E+01  0.71202753578E+02  0.73525956400E+02  0.20047139673E+03  0.17217658586E+03 0.  0.
        -24    2    5    5    0    0  0.27739160491E+02  0.26066431282E+02  0.10827742710E+03  0.14008292600E+03  0.80313791289E+02 0.  0.
          5    1    3    3  501    0 -0.19536926440E+02 -0.70477731231E+02 -0.36493460448E+03  0.37222057660E+03  0.47000000000E+01 0. -1.
        -13    1    4    4    0    0  0.41183302653E+02  0.87425098488E+01 -0.60494884985E+02  0.73702964698E+02  0.00000000000E+00 0.  1.
         14    1    4    4    0    0 -0.29899000551E+02 -0.94675321954E+01 -0.20942991700E+02  0.37711978219E+02  0.00000000000E+00 0. -1.
         -5    1    5    5    0  502 -0.19486536153E+02  0.45136322295E+02 -0.34751470703E+02  0.60388470734E+02  0.47000000000E+01 0.  1.
         13    1    6    6    0    0  0.20300810642E+02  0.22184201428E+02 -0.13822735306E+01  0.30102697318E+02  0.00000000000E+00 0. -1.
        -14    1    6    6    0    0  0.74383498490E+01  0.38822298542E+01  0.10965970063E+03  0.10998022868E+03  0.00000000000E+00 0.  1.
</event>
<event>
12    1  0.8297444E-002  0.1744039E+03  0.7818608E-02  0.1173906E+00
         21   -1    0    0  501  502  0.00000000000E+00  0.00000000000E+00  0.26572330574E+03  0.26572330574E+03  0.00000000000E+00 0.  1.
         21   -1    0    0  502  503 -0.00000000000E+00 -0.00000000000E+00 -0.11856073283E+03  0.11856073283E+03  0.00000000000E+00 0.  1.
         -6    2    1    2    0  503 -0.13630394141E+02 -0.85069642182E+01  0.31469599463E+02  0.17499578323E+03  0.17139145946E+03 0.  0.
        -24    2    3    3    0    0 -0.39317905265E+02 -0.40230316702E+02  0.67402307738E+02  0.12041127220E+03  0.82410116661E+02 0.  0.
          6    2    1    2  501    0  0.13630394141E+02  0.85069642182E+01  0.11569297345E+03  0.20928825534E+03  0.17366218251E+03 0.  0.
         24    2    5    5    0    0  0.50553243147E+01  0.38271468869E+01  0.15110078318E+03  0.17225805817E+03  0.82469318945E+02 0.  0.
          5    1    5    5  501    0  0.85750698262E+01  0.46798173314E+01 -0.35407809731E+02  0.37030197174E+02  0.47000000000E+01 0. -1.
        -11    1    6    6    0    0  0.17448609177E+02  0.39337174058E+02  0.99481286456E+02  0.10839000683E+03  0.00000000000E+00 0.  1.
         12    1    6    6    0    0 -0.12393284863E+02 -0.35510027171E+02  0.51619496728E+02  0.63868051339E+02  0.00000000000E+00 0. -1.
         -5    1    3    3    0  503  0.25687511125E+02  0.31723352484E+02 -0.35932708275E+02  0.54584511032E+02  0.47000000000E+01 0.  1.
         11    1    4    4    0    0  0.83737164896E+01 -0.18882193349E+01  0.57842347842E+02  0.58475821533E+02  0.00000000000E+00 0. -1.
        -12    1    4    4    0    0 -0.47691621755E+02 -0.38342097367E+02  0.95599598964E+01  0.61935450668E+02  0.00000000000E+00 0.  1.
</event>
<event>
12    1  0.8297444E-002  0.1961828E+03  0.7818608E-02  0.1153105E+00
         21   -1    0    0  503  502  0.00000000000E+00  0.00000000000E+00  0.11294728263E+04  0.11294728263E+04  0.00000000000E+00 0.  1.
         21   -1    0    0  501  503 -0.00000000000E+00 -0.00000000000E+00 -0.89908781160E+02  0.89908781160E+02  0.00000000000E+00 0.  1.
          6    2    1    2  501    0 -0.73707215648E+02  0.57925405264E+02  0.10003569818E+04  0.10193193984E+04  0.17178427962E+03 0.  0.
         24    2    3    3    0    0 -0.33086495470E+02  0.79767996355E+02  0.47252320282E+03  0.48945363246E+03  0.93962927261E+02 0.  0.
         -6    2    1    2    0  502  0.73707215648E+02 -0.57925405264E+02  0.39207063369E+02  0.20006220908E+03  0.17233568252E+03 0.  0.
        -24    2    5    5    0    0 -0.12197094880E+02 -0.15729633530E+01 -0.22208095022E+02  0.80274647301E+02  0.76154948477E+02 0.  0.
          5    1    3    3  501    0 -0.40620720177E+02 -0.21842591091E+02  0.52783377896E+03  0.52986576593E+03  0.47000000000E+01 0. -1.
        -11    1    4    4    0    0 -0.26798961476E+02  0.65395746248E+02  0.46774583420E+03  0.47305491581E+03  0.00000000000E+00 0.  1.
         12    1    4    4    0    0 -0.62875339940E+01  0.14372250107E+02  0.47773686272E+01  0.16398716653E+02  0.00000000000E+00 0. -1.
         -5    1    5    5    0  502  0.85904310528E+02 -0.56352441911E+02  0.61415158392E+02  0.11978756178E+03  0.47000000000E+01 0.  1.
         13    1    6    6    0    0 -0.53093322287E+01  0.71472272241E+01  0.27725244507E+02  0.29119770753E+02  0.00000000000E+00 0. -1.
        -14    1    6    6    0    0 -0.68877626515E+01 -0.87201905771E+01 -0.49933339530E+02  0.51154876548E+02  0.00000000000E+00 0.  1.
</event>
<event>
12    1  0.8297444E-002  0.1788129E+03  0.7818608E-02  0.1170259E+00
         21   -1    0    0  501  502  0.00000000000E+00  0.00000000000E+00  0.43847424140E+02  0.43847424140E+02  0.00000000000E+00 0.  1.
         21   -1    0    0  502  503 -0.00000000000E+00 -0.00000000000E+00 -0.71256459181E+03  0.71256459181E+03  0.00000000000E+00 0.  1.
         -6    2    1    2    0  503  0.35975079482E+02 -0.42332966570E+02 -0.29902049109E+03  0.34574220920E+03  0.16443276658E+03 0.  0.
        -24    2    3    3    0    0 -0.29699765086E+02 -0.10657968322E+02 -0.92854519518E+02  0.12701180766E+03  0.80711642002E+02 0.  0.
          6    2    1    2  501    0 -0.35975079482E+02  0.42332966570E+02 -0.36969667658E+03  0.41066980675E+03  0.16996402885E+03 0.  0.
         24    2    5    5    0    0 -0.37983736242E+02  0.93169224777E+02 -0.25801540058E+03  0.28785630074E+03  0.78524099963E+02 0.  0.
          5    1    5    5  501    0  0.20086567603E+01 -0.50836258206E+02 -0.11168127600E+03  0.12281350601E+03  0.47000000000E+01 0. -1.
        -11    1    6    6    0    0 -0.48847343682E+02  0.43842314003E+02 -0.83677647351E+02  0.10634923671E+03  0.00000000000E+00 0.  1.
         12    1    6    6    0    0  0.10863607440E+02  0.49326910774E+02 -0.17433775323E+03  0.18150706403E+03  0.00000000000E+00 0. -1.
         -5    1    3    3    0  503  0.65674844568E+02 -0.31674998248E+02 -0.20616597157E+03  0.21873040154E+03  0.47000000000E+01 0.  1.
         11    1    4    4    0    0 -0.73082414270E+01  0.14380628137E+01  0.14704266133E+02  0.16483138655E+02  0.00000000000E+00 0. -1.
        -12    1    4    4    0    0 -0.22391523659E+02 -0.12096031136E+02 -0.10755878565E+03  0.11052866900E+03  0.00000000000E+00 0.  1.
</event>
<event>
12    1  0.8297444E-002  0.1901183E+03  0.7818608E-02  0.1158435E+00
         21   -1    0    0  501  502  0.00000000000E+00  0.00000000000E+00  0.61059522487E+02  0.61059522487E+02  0.00000000000E+00 0. -1.
         21   -1    0    0  502  503 -0.00000000000E+00 -0.00000000000E+00 -0.59096581673E+03  0.59096581673E+03  0.00000000000E+00 0. -1.
         -6    2    1    2    0  503 -0.94600000239E+01 -0.80455673716E+02 -0.26975696485E+03  0.33002087150E+03  0.17199519908E+03 0.  0.
        -24    2    3    3    0    0  0.58590955462E+02 -0.41697365975E+02 -0.12276802586E+03  0.16340461435E+03  0.80358630062E+02 0.  0.
          6    2    1    2  501    0  0.94600000239E+01  0.80455673716E+02 -0.26014932940E+03  0.32200446772E+03  0.17160010668E+03 0.  0.
         24    2    5    5    0    0  0.53196770534E+02  0.89028869177E+01 -0.98465415765E+02  0.13980544379E+03  0.83312461384E+02 0.  0.
          5    1    5    5  501    0 -0.43736770510E+02  0.71552786799E+02 -0.16168391363E+03  0.18219902393E+03  0.47000000000E+01 0. -1.
        -13    1    6    6    0    0  0.49134356184E+02 -0.70456437635E+01 -0.10934002579E+03  0.12007942077E+03  0.00000000000E+00 0.  1.
         14    1    6    6    0    0  0.40624143497E+01  0.15948530681E+02  0.10874610020E+02  0.19726023024E+02  0.00000000000E+00 0. -1.
         -5    1    3    3    0  503 -0.68050955486E+02 -0.38758307741E+02 -0.14698893899E+03  0.16661625715E+03  0.47000000000E+01 0.  1.
         11    1    4    4    0    0  0.52382215833E+02 -0.28496876045E+02 -0.13288527723E+03  0.14565186365E+03  0.00000000000E+00 0. -1.
        -12    1    4    4    0    0  0.62087396296E+01 -0.13200489930E+02  0.10117251368E+02  0.17752750701E+02  0.00000000000E+00 0.  1.
</event>
<event>
12    1  0.8297444E-002  0.1774154E+03  0.7818608E-02  0.1170979E+00
         21   -1    0    0  503  502  0.00000000000E+00  0.00000000000E+00  0.26007157114E+03  0.26007157114E+03  0.00000000000E+00 0.  1.
         21   -1    0    0  501  503 -0.00000000000E+00 -0.00000000000E+00 -0.66686141399E+03  0.66686141399E+03  0.00000000000E+00 0.  1.
          6    2    1    2  501    0  0.14361922687E+02 -0.28283263435E+02 -0.62365184742E+03  0.64839636437E+03  0.17455661180E+03 0.  0.
         24    2    3    3    0    0 -0.10598390704E+02 -0.35838065467E+02 -0.61385916125E+03  0.62014607268E+03  0.79758314820E+02 0.  0.
         -6    2    1    2    0  502 -0.14361922687E+02  0.28283263435E+02  0.21686200457E+03  0.27853662076E+03  0.17189331652E+03 0.  0.
        -24    2    5    5    0    0 -0.67081324097E+02  0.33775613719E+02  0.18264739217E+03  0.21527343322E+03  0.85684800619E+02 0.  0.
          5    1    3    3  501    0  0.24960313392E+02  0.75548020323E+01 -0.97926861702E+01  0.28250291694E+02  0.47000000000E+01 0. -1.
        -11    1    4    4    0    0  0.15413344650E+01  0.67005391546E+01 -0.46006136308E+03  0.46011273699E+03  0.00000000000E+00 0.  1.
         12    1    4    4    0    0 -0.12139725169E+02 -0.42538604622E+02 -0.15379779817E+03  0.16003333569E+03  0.00000000000E+00 0. -1.
         -5    1    5    5    0  502  0.52719401409E+02 -0.54923502841E+01  0.34214612402E+02  0.63263187545E+02  0.47000000000E+01 0.  1.
         13    1    6    6    0    0 -0.50411098419E+02 -0.12581362851E+02  0.43834420685E+02  0.67978128628E+02  0.00000000000E+00 0. -1.
        -14    1    6    6    0    0 -0.16670225678E+02  0.46356976570E+02  0.13881297149E+03  0.14729530459E+03  0.00000000000E+00 0.  1.
</event>
<event>
12    1  0.8297444E-002  0.1759027E+03  0.7818608E-02  0.1171945E+00
         21   -1    0    0  503  502  0.00000000000E+00  0.00000000000E+00  0.38175600787E+03  0.38175600787E+03  0.00000000000E+00 0.  1.
         21   -1    0    0  501  503 -0.00000000000E+00 -0.00000000000E+00 -0.80968291898E+02  0.80968291898E+02  0.00000000000E+00 0.  1.
          6    2    1    2  501    0 -0.81641604575E+01 -0.31950503362E+02  0.14122010007E+03  0.22557676509E+03  0.17278388843E+03 0.  0.
         24    2    3    3    0    0 -0.14483171214E+02 -0.75391057785E+02  0.14251486114E+03  0.18140915170E+03  0.81885412824E+02 0.  0.
         -6    2    1    2    0  502  0.81641604575E+01  0.31950503362E+02  0.15956761590E+03  0.23714753468E+03  0.17230682221E+03 0.  0.
        -24    2    5    5    0    0  0.38181035272E+02 -0.37717912830E+02  0.70285117236E+02  0.11989500569E+03  0.80959139578E+02 0.  0.
          5    1    3    3  501    0  0.63190107567E+01  0.43440554423E+02 -0.12947610697E+01  0.44167613381E+02  0.47000000000E+01 0. -1.
        -11    1    4    4    0    0 -0.83859476255E+01 -0.27391657264E+02 -0.22865670856E+01  0.28737699878E+02  0.00000000000E+00 0.  1.
         12    1    4    4    0    0 -0.60972235888E+01 -0.47999400521E+02  0.14480142823E+03  0.15267145183E+03  0.00000000000E+00 0. -1.
         -5    1    5    5    0  502 -0.30016874814E+02  0.69668416192E+02  0.89282498661E+02  0.11725252899E+03  0.47000000000E+01 0.  1.
         13    1    6    6    0    0 -0.23045586613E+02 -0.96236540548E+00  0.60549197328E+01  0.23847164664E+02  0.00000000000E+00 0. -1.
        -14    1    6    6    0    0  0.61226621885E+02 -0.36755547425E+02  0.64230197503E+02  0.96047841023E+02  0.00000000000E+00 0.  1.
</event>
<event>
12    1  0.8297444E-002  0.2171093E+03  0.7818608E-02  0.1136637E+00
         21   -1    0    0  503  502  0.00000000000E+00  0.00000000000E+00  0.11238781234E+04  0.11238781234E+04  0.00000000000E+00 0. -1.
         21   -1    0    0  501  503 -0.00000000000E+00 -0.00000000000E+00 -0.43360970900E+02  0.43360970900E+02  0.00000000000E+00 0. -1.
          6    2    1    2  501    0 -0.11605963082E+03 -0.66969950699E+02  0.66936587580E+03  0.70369532280E+03  0.17082628440E+03 0.  0.
         24    2    3    3    0    0 -0.30021403756E+02 -0.88934881899E+02  0.45589880022E+03  0.47244801562E+03  0.80948832748E+02 0.  0.
         -6    2    1    2    0  502  0.11605963082E+03  0.66969950699E+02  0.41115127667E+03  0.46354377147E+03  0.16695102144E+03 0.  0.
        -24    2    5    5    0    0  0.13031695486E+03  0.33658948700E+02  0.39155160736E+03  0.42208136464E+03  0.82003558443E+02 0.  0.
          5    1    3    3  501    0 -0.86038227066E+02  0.21964931199E+02  0.21346707559E+03  0.23124730718E+03  0.47000000000E+01 0. -1.
        -11    1    4    4    0    0  0.10112891101E+02 -0.78563511286E+02  0.24409511736E+03  0.25662603568E+03  0.00000000000E+00 0.  1.
         12    1    4    4    0    0 -0.40134294857E+02 -0.10371370613E+02  0.21180368286E+03  0.21582197994E+03  0.00000000000E+00 0. -1.
         -5    1    5    5    0  502 -0.14257324042E+02  0.33311001999E+02  0.19599669306E+02  0.41462406828E+02  0.47000000000E+01 0.  1.
         13    1    6    6    0    0  0.42599401006E+02 -0.27421668876E+02  0.12069293644E+03  0.13089477375E+03  0.00000000000E+00 0. -1.
        -14    1    6    6    0    0  0.87717553859E+02  0.61080617576E+02  0.27085867093E+03  0.29118659089E+03  0.00000000000E+00 0.  1.
</event>
<event>
12    1  0.8297444E-002  0.1862918E+03  0.7818608E-02  0.1162080E+00
         21   -1    0    0  501  502  0.00000000000E+00  0.00000000000E+00  0.80073703121E+02  0.80073703121E+02  0.00000000000E+00 0.  1.
         21   -1    0    0  502  503 -0.00000000000E+00 -0.00000000000E+00 -0.43835650230E+03  0.43835650230E+03  0.00000000000E+00 0. -1.
         -6    2    1    2    0  503  0.65390601705E+02 -0.18500614672E+01 -0.21297529163E+03  0.28295427608E+03  0.17442847814E+03 0.  0.
        -24    2    3    3    0    0  0.14052757431E+02 -0.52402790506E+02 -0.17811202174E+03  0.20277516249E+03  0.80314019889E+02 0.  0.
          6    2    1    2  501    0 -0.65390601705E+02  0.18500614672E+01 -0.14530750755E+03  0.23547592934E+03  0.17336461009E+03 0.  0.
         24    2    5    5    0    0 -0.10905744905E+03  0.21203146841E+02 -0.11466885292E+03  0.17853602569E+03  0.79894092477E+02 0.  0.
          5    1    5    5  501    0  0.43666847342E+02 -0.19353085374E+02 -0.30638654630E+02  0.56939903651E+02  0.47000000000E+01 0. -1.
        -11    1    6    6    0    0 -0.40089722083E+02  0.21805374292E+02 -0.10816409249E+01  0.45648988070E+02  0.00000000000E+00 0.  1.
         12    1    6    6    0    0 -0.68967726963E+02 -0.60222745073E+00 -0.11358721199E+03  0.13288703762E+03  0.00000000000E+00 0. -1.
         -5    1    3    3    0  503  0.51337844274E+02  0.50552729039E+02 -0.34863269898E+02  0.80179113589E+02  0.47000000000E+01 0.  1.
         13    1    4    4    0    0  0.44167354802E+02 -0.11344479788E+02 -0.74971995015E+02  0.87751082549E+02  0.00000000000E+00 0. -1.
        -14    1    4    4    0    0 -0.30114597371E+02 -0.41058310718E+02 -0.10314002672E+03  0.11502407994E+03  0.00000000000E+00 0.  1.
</event>
<event>
12    1  0.8297444E-002  0.2514420E+03  0.7818608E-02  0.1112475E+00
         21   -1    0    0  501  502  0.00000000000E+00  0.00000000000E+00  0.65039257145E+03  0.65039257145E+03  0.00000000000E+00 0. -1.
         21   -1    0    0  502  503 -0.00000000000E+00 -0.00000000000E+00 -0.99392325559E+02  0.99392325559E+02  0.00000000000E+00 0.  1.
         -6    2    1    2    0  503  0.39320256772E+02 -0.17864375818E+03  0.33373955632E+03  0.41785784415E+03  0.17252075684E+03 0.  0.
        -24    2    3    3    0    0  0.72270332393E+02 -0.16627858022E+03  0.32648380265E+03  0.38161779627E+03  0.78542357063E+02 0.  0.
          6    2    1    2  501    0 -0.39320256772E+02  0.17864375818E+03  0.21726068957E+03  0.33192705286E+03  0.17179547798E+03 0.  0.
         24    2    5    5    0    0  0.14538030859E+02  0.11699135305E+03  0.57378170963E+02  0.15224331969E+03  0.77378568477E+02 0.  0.
          5    1    5    5  501    0 -0.53858287631E+02  0.61652405131E+02  0.15988251861E+03  0.17968373316E+03  0.47000000000E+01 0. -1.
        -13    1    6    6    0    0  0.26913486446E+01  0.94160582989E+02  0.75547935767E+02  0.12075160183E+03  0.00000000000E+00 0.  1.
         14    1    6    6    0    0  0.11846682215E+02  0.22830770059E+02 -0.18169764803E+02  0.31491717863E+02  0.00000000000E+00 0. -1.
         -5    1    3    3    0  503 -0.32950075621E+02 -0.12365177961E+02  0.72557536684E+01  0.36240047886E+02  0.47000000000E+01 0.  1.
         13    1    4    4    0    0  0.23604708424E+02  0.74263854265E+00  0.39761773588E+02  0.46246431329E+02  0.00000000000E+00 0. -1.
        -14    1    4    4    0    0  0.48665623969E+02 -0.16702121876E+03  0.28672202906E+03  0.33537136494E+03  0.00000000000E+00 0.  1.
</event>
<event>
12    1  0.8297444E-002  0.3504981E+03  0.7818608E-02  0.1062421E+00
         21   -1    0    0  501  502  0.00000000000E+00  0.00000000000E+00  0.38249482021E+03  0.38249482021E+03  0.00000000000E+00 0.  1.
         21   -1    0    0  502  503 -0.00000000000E+00 -0.00000000000E+00 -0.96090196483E+03  0.96090196483E+03  0.00000000000E+00 0. -1.
         -6    2    1    2    0  503 -0.19428135492E+03  0.23591169229E+03 -0.83732166762E+03  0.90772049819E+03  0.17160814766E+03 0.  0.
        -24    2    3    3    0    0 -0.13425495290E+03  0.87086037586E+02 -0.33651638347E+03  0.38181150695E+03  0.83236891911E+02 0.  0.
          6    2    1    2  501    0  0.19428135492E+03 -0.23591169229E+03  0.25891452299E+03  0.43567628685E+03  0.17139873185E+03 0.  0.
         24    2    5    5    0    0  0.18803748323E+03 -0.18302717738E+03  0.14537082954E+03  0.31017721046E+03  0.78868124426E+02 0.  0.
          5    1    5    5  501    0  0.62438716873E+01 -0.52884514910E+02  0.11354369345E+03  0.12549907639E+03  0.47000000000E+01 0. -1.
        -11    1    6    6    0    0  0.13472709053E+03 -0.17357399191E+03  0.12046183881E+03  0.25058007542E+03  0.00000000000E+00 0.  1.
         12    1    6    6    0    0  0.53310392703E+02 -0.94531854672E+01  0.24908990733E+02  0.59597135040E+02  0.00000000000E+00 0. -1.
         -5    1    3    3    0  503 -0.60026402020E+02  0.14882565470E+03 -0.50080528415E+03  0.52590899124E+03  0.47000000000E+01 0.  1.
         13    1    4    4    0    0 -0.71141775948E+02  0.66208463171E+02 -0.27334296526E+03  0.29010530767E+03  0.00000000000E+00 0. -1.
        -14    1    4    4    0    0 -0.63113176948E+02  0.20877574415E+02 -0.63173418210E+02  0.91706199279E+02  0.00000000000E+00 0.  1.
</event>
<event>
12    1  0.8297444E-002  0.2064645E+03  0.7818608E-02  0.1144487E+00
         21   -1    0    0  501  502  0.00000000000E+00  0.00000000000E+00  0.32433144355E+03  0.32433144355E+03  0.00000000000E+00 0. -1.
         21   -1    0    0  502  503 -0.00000000000E+00 -0.00000000000E+00 -0.14641833842E+03  0.14641833842E+03  0.00000000000E+00 0. -1.
         -6    2    1    2    0  503  0.19417646267E+02 -0.11199934904E+03  0.12856427437E+02  0.20641799026E+03  0.17182025435E+03 0.  0.
        -24    2    3    3    0    0 -0.55249694928E+02 -0.72668662180E+02 -0.16605454374E+01  0.12065700104E+03  0.78880233494E+02 0.  0.
          6    2    1    2  501    0 -0.19417646267E+02  0.11199934904E+03  0.16505667770E+03  0.26433179172E+03  0.17235628822E+03 0.  0.
         24    2    5    5    0    0 -0.13079439282E+02  0.34210012648E+02  0.16413611698E+03  0.18613785873E+03  0.79782459581E+02 0.  0.
          5    1    5    5  501    0 -0.63382069857E+01  0.77789336392E+02  0.92056071175E+00  0.78193932988E+02  0.47000000000E+01 0. -1.
        -11    1    6    6    0    0 -0.22811141947E+02 -0.21297258813E+02  0.65012468211E+02  0.72114786645E+02  0.00000000000E+00 0.  1.
         12    1    6    6    0    0  0.97317026655E+01  0.55507271461E+02  0.99123648773E+02  0.11402307209E+03  0.00000000000E+00 0. -1.
         -5    1    3    3    0  503  0.74667341196E+02 -0.39330686860E+02  0.14516972874E+02  0.85760989218E+02  0.47000000000E+01 0.  1.
         11    1    4    4    0    0 -0.68056207832E+02 -0.28849521188E+02  0.67884208754E+01  0.74229542335E+02  0.00000000000E+00 0. -1.
        -12    1    4    4    0    0  0.12806512904E+02 -0.43819140992E+02 -0.84489663128E+01  0.46427458705E+02  0.00000000000E+00 0.  1.
</event>
<event>
12    1  0.8297444E-002  0.2007817E+03  0.7818608E-02  0.1149616E+00
         21   -1    0    0  501  502  0.00000000000E+00  0.00000000000E+00  0.19762537658E+03  0.19762537658E+03  0.00000000000E+00 0.  1.
         21   -1    0    0  502  503 -0.00000000000E+00 -0.00000000000E+00 -0.29813378647E+03  0.29813378647E+03  0.00000000000E+00 0. -1.
         -6    2    1    2    0  503  0.95864546883E+02 -0.17784516649E+02 -0.19121612573E+03  0.27543857488E+03  0.17261663133E+03 0.  0.
        -24    2    3    3    0    0  0.26382321383E+02 -0.57938017397E+02 -0.15900024760E+03  0.18883582615E+03  0.79530181450E+02 0.  0.
          6    2    1    2  501    0 -0.95864546883E+02  0.17784516649E+02  0.90707715841E+02  0.22032058817E+03  0.17551914847E+03 0.  0.
         24    2    5    5    0    0 -0.11121409064E+03  0.37865408423E+02  0.17502493397E+02  0.14273228170E+03  0.79144196583E+02 0.  0.
          5    1    5    5  501    0  0.15349543758E+02 -0.20080891774E+02  0.73205222445E+02  0.77588306472E+02  0.47000000000E+01 0. -1.
        -13    1    6    6    0    0  0.69763900595E+01  0.20995009487E+02  0.50783608734E+01  0.22699123128E+02  0.00000000000E+00 0.  1.
         14    1    6    6    0    0 -0.11819048070E+03  0.16870398936E+02  0.12424132523E+02  0.12003315857E+03  0.00000000000E+00 0. -1.
         -5    1    3    3    0  503  0.69482225500E+02  0.40153500748E+02 -0.32215878132E+02  0.86602748724E+02  0.47000000000E+01 0.  1.
         13    1    4    4    0    0  0.22559087792E+02 -0.37427525354E+01 -0.11948990731E+03  0.12165836834E+03  0.00000000000E+00 0. -1.
        -14    1    4    4    0    0  0.38232335909E+01 -0.54195264862E+02 -0.39510340290E+02  0.67177457814E+02  0.00000000000E+00 0.  1.
</event>
<event>
12    1  0.8297444E-002  0.2271379E+03  0.7818608E-02  0.1129059E+00
         21   -1    0    0  503  502  0.00000000000E+00  0.00000000000E+00  0.30293058513E+03  0.30293058513E+03  0.00000000000E+00 0. -1.
         21   -1    0    0  501  503 -0.00000000000E+00 -0.00000000000E+00 -0.16872070301E+03  0.16872070301E+03  0.00000000000E+00 0. -1.
          6    2    1    2  501    0  0.31822300940E+02  0.14439756573E+03  0.69869200501E+02  0.23557645467E+03  0.16956192082E+03 0.  0.
         24    2    3    3    0    0  0.10277582034E+02  0.87316627170E+02 -0.23488687317E+02  0.12395121704E+03  0.84156780478E+02 0.  0.
         -6    2    1    2    0  502 -0.31822300940E+02 -0.14439756573E+03  0.64340681616E+02  0.23607483346E+03  0.17241893127E+03 0.  0.
        -24    2    5    5    0    0  0.19611517022E+02 -0.11961280191E+03  0.91284750965E+02  0.17276768520E+03  0.82607102062E+02 0.  0.
          5    1    3    3  501    0  0.21544718905E+02  0.57080938559E+02  0.93357887818E+02  0.11162523764E+03  0.47000000000E+01 0. -1.
        -11    1    4    4    0    0 -0.84476783355E+01 -0.14256177722E+02  0.40493263097E+01  0.17058690339E+02  0.00000000000E+00 0.  1.
         12    1    4    4    0    0  0.18725260370E+02  0.10157280489E+03 -0.27538013627E+02  0.10689252670E+03  0.00000000000E+00 0. -1.
         -5    1    5    5    0  502 -0.51433817962E+02 -0.24784763817E+02 -0.26944069350E+02  0.63307148259E+02  0.47000000000E+01 0.  1.
         13    1    6    6    0    0  0.21200738986E+02 -0.59079520349E+02 -0.54410820219E+00  0.62770670794E+02  0.00000000000E+00 0. -1.
        -14    1    6    6    0    0 -0.15892219640E+01 -0.60533281563E+02  0.91828859167E+02  0.10999701441E+03  0.00000000000E+00 0.  1.
</event>
<event>
12    1  0.8297444E-002  0.1970053E+03  0.7818608E-02  0.1154004E+00
         21   -1    0    0  501  502  0.00000000000E+00  0.00000000000E+00  0.19235044404E+04  0.19235044404E+04  0.00000000000E+00 0. -1.
         21   -1    0    0  502  503 -0.00000000000E+00 -0.00000000000E+00 -0.25119082907E+02  0.25119082907E+02  0.00000000000E+00 0. -1.
         -6    2    1    2    0  503 -0.71052339590E+02 -0.52457125680E+02  0.49861365324E+03  0.53612186179E+03  0.17609909284E+03 0.  0.
        -24    2    3    3    0    0 -0.31282976002E+02 -0.89673574834E+02  0.43512340133E+03  0.45233780331E+03  0.79102081579E+02 0.  0.
          6    2    1    2  501    0  0.71052339590E+02  0.52457125680E+02  0.13997717042E+04  0.14125016615E+04  0.16733181035E+03 0.  0.
         24    2    5    5    0    0  0.47901499154E+01  0.68199645481E+02  0.10976732034E+04  0.11027855028E+04  0.81088018163E+02 0.  0.
          5    1    5    5  501    0  0.66262189674E+02 -0.15742519800E+02  0.30209850088E+03  0.30971615867E+03  0.47000000000E+01 0. -1.
        -11    1    6    6    0    0  0.28544120641E+02 -0.42153196656E+01  0.37361123825E+03  0.37472375570E+03  0.00000000000E+00 0.  1.
         12    1    6    6    0    0 -0.23753970725E+02  0.72414965146E+02  0.72406196511E+03  0.72806174713E+03  0.00000000000E+00 0. -1.
         -5    1    3    3    0  503 -0.39769363588E+02  0.37216449154E+02  0.63490251914E+02  0.83784058483E+02  0.47000000000E+01 0.  1.
         13    1    4    4    0    0 -0.18235054308E+02 -0.28479454575E+01  0.16990184022E+02  0.25085740014E+02  0.00000000000E+00 0. -1.
        -14    1    4    4    0    0 -0.13047921694E+02 -0.86825629377E+02  0.41813321730E+03  0.42725206329E+03  0.00000000000E+00 0.  1.
</event>
<event>
12    1  0.8297444E-002  0.2384419E+03  0.7818608E-02  0.1121020E+00
         21   -1    0    0  503  502  0.00000000000E+00  0.00000000000E+00  0.69608448146E+02  0.69608448146E+02  0.00000000000E+00 0. -1.
         21   -1    0    0  501  503 -0.00000000000E+00 -0.00000000000E+00 -0.81412378733E+03  0.81412378733E+03  0.00000000000E+00 0. -1.
          6    2    1    2  501    0 -0.69419979812E+02 -0.14972989941E+03 -0.35682486629E+03  0.42916023488E+03  0.17209400230E+03 0.  0.
         24    2    3    3    0    0 -0.95379287138E+02 -0.54238211379E+02 -0.16604554565E+03  0.21419189465E+03  0.79171033302E+02 0.  0.
         -6    2    1    2    0  502  0.69419979812E+02  0.14972989941E+03 -0.38769047290E+03  0.45457200059E+03  0.17056853336E+03 0.  0.
        -24    2    5    5    0    0 -0.12119668982E+02  0.94711172383E+02 -0.13501160134E+03  0.18338115123E+03  0.79268036296E+02 0.  0.
          5    1    3    3  501    0  0.25959307326E+02 -0.95491688033E+02 -0.19077932064E+03  0.21496834023E+03  0.47000000000E+01 0. -1.
        -13    1    4    4    0    0 -0.81929378627E+02 -0.24553425381E+02 -0.15945095250E+03  0.18094170341E+03  0.00000000000E+00 0.  1.
         14    1    4    4    0    0 -0.13449908512E+02 -0.29684785998E+02 -0.65945931557E+01  0.33250191242E+02  0.00000000000E+00 0. -1.
         -5    1    5    5    0  502  0.81539648794E+02  0.55018727029E+02 -0.25267887156E+03  0.27119084937E+03  0.47000000000E+01 0.  1.
         11    1    6    6    0    0  0.14752599800E+01  0.35746172299E+02 -0.38320951358E+00  0.35778653910E+02  0.00000000000E+00 0. -1.
        -12    1    6    6    0    0 -0.13594928962E+02  0.58965000084E+02 -0.13462839183E+03  0.14760249732E+03  0.00000000000E+00 0.  1.
</event>
<event>
12    1  0.8297444E-002  0.2382231E+03  0.7818608E-02  0.1121086E+00
         21   -1    0    0  501  502  0.00000000000E+00  0.00000000000E+00  0.25744144090E+03  0.25744144090E+03  0.00000000000E+00 0.  1.
         21   -1    0    0  502  503 -0.00000000000E+00 -0.00000000000E+00 -0.27691506421E+03  0.27691506421E+03  0.00000000000E+00 0.  1.
         -6    2    1    2    0  503  0.16407278423E+03 -0.74501901215E+01 -0.13101341049E+03  0.27187265962E+03  0.17255389148E+03 0.  0.
        -24    2    3    3    0    0  0.32072838040E+02  0.19829721970E+02 -0.10062247406E+03  0.13361970879E+03  0.79419515714E+02 0.  0.
          6    2    1    2  501    0 -0.16407278423E+03  0.74501901215E+01  0.11153978717E+03  0.26248384548E+03  0.17170108082E+03 0.  0.
         24    2    5    5    0    0 -0.14012947533E+03 -0.52442603837E+02  0.59603035895E+02  0.17953841195E+03  0.79341180519E+02 0.  0.
          5    1    5    5  501    0 -0.23943308907E+02  0.59892793958E+02  0.51936751279E+02  0.82945433527E+02  0.47000000000E+01 0. -1.
        -13    1    6    6    0    0 -0.50827586616E+01 -0.12607857169E+02  0.33750697649E+02  0.36385465365E+02  0.00000000000E+00 0.  1.
         14    1    6    6    0    0 -0.13504671666E+03 -0.39834746668E+02  0.25852338246E+02  0.14315294659E+03  0.00000000000E+00 0. -1.
         -5    1    3    3    0  503  0.13199994619E+03 -0.27279912092E+02 -0.30390936423E+02  0.13825295084E+03  0.47000000000E+01 0.  1.
         11    1    4    4    0    0  0.20603813784E+02 -0.23990797087E+02 -0.75425189522E+02  0.81786519071E+02  0.00000000000E+00 0. -1.
        -12    1    4    4    0    0  0.11469024255E+02  0.43820519057E+02 -0.25197284540E+02  0.51833189715E+02  0.00000000000E+00 0.  1.
</event>
<event>
12    1  0.8297444E-002  0.2831458E+03  0.7818608E-02  0.1093988E+00
         21   -1    0    0  501  502  0.00000000000E+00  0.00000000000E+00  0.80995321877E+03  0.80995321877E+03  0.00000000000E+00 0. -1.
         21   -1    0    0  502  503 -0.00000000000E+00 -0.00000000000E+00 -0.16539011735E+03  0.16539011735E+03  0.00000000000E+00 0. -1.
         -6    2    1    2    0  503 -0.85909257893E+02  0.20694949091E+03  0.13224802472E+02  0.28341878149E+03  0.17303993158E+03 0.  0.
        -24    2    3    3    0    0 -0.32289621103E+02  0.56130409662E+02  0.56495528586E+02  0.11753958913E+03  0.80190820817E+02 0.  0.
          6    2    1    2  501    0  0.85909257893E+02 -0.20694949091E+03  0.63133829895E+03  0.69192455463E+03  0.17309838010E+03 0.  0.
         24    2    5    5    0    0  0.95763304444E+02 -0.18685644221E+03  0.63019516168E+03  0.66902849378E+03  0.79795007403E+02 0.  0.
          5    1    5    5  501    0 -0.98540465515E+01 -0.20093048699E+02  0.11431372658E+01  0.22896060846E+02  0.47000000000E+01 0. -1.
        -13    1    6    6    0    0  0.69222853344E+01 -0.34076746782E+02  0.40302275788E+02  0.53229842563E+02  0.00000000000E+00 0.  1.
         14    1    6    6    0    0  0.88841019110E+02 -0.15277969543E+03  0.58989288589E+03  0.61579865122E+03  0.00000000000E+00 0. -1.
         -5    1    3    3    0  503 -0.53619636790E+02  0.15081908125E+03 -0.43270726114E+02  0.16587919236E+03  0.47000000000E+01 0.  1.
         13    1    4    4    0    0 -0.32579672689E+02  0.66514329948E+02  0.16053321564E+02  0.75784565013E+02  0.00000000000E+00 0. -1.
        -14    1    4    4    0    0  0.29005158588E+00 -0.10383920286E+02  0.40442207022E+02  0.41755024119E+02  0.00000000000E+00 0.  1.
</event>
<event>
12    1  0.8297444E-002  0.2634477E+03  0.7818608E-02  0.1105240E+00
         21   -1    0    0  501  502  0.00000000000E+00  0.00000000000E+00  0.10294323350E+03  0.10294323350E+03  0.00000000000E+00 0. -1.
         21   -1    0    0  502  503 -0.00000000000E+00 -0.00000000000E+00 -0.71637032346E+03  0.71637032346E+03  0.00000000000E+00 0.  1.
         -6    2    1    2    0  503  0.15081604984E+02 -0.19716289842E+03 -0.40856871149E+03  0.48558965756E+03  0.17253480864E+03 0.  0.
        -24    2    3    3    0    0 -0.57149231001E+02 -0.13136086458E+03 -0.25759255886E+03  0.30569221458E+03  0.81068442258E+02 0.  0.
          6    2    1    2  501    0 -0.15081604984E+02  0.19716289842E+03 -0.20485837847E+03  0.33372389940E+03  0.17408050573E+03 0.  0.
         24    2    5    5    0    0  0.15902361842E+02  0.19154778261E+03 -0.21639092011E+03  0.29986204413E+03  0.78414138202E+02 0.  0.
          5    1    5    5  501    0 -0.30983966826E+02  0.56151158160E+01  0.11532541635E+02  0.33861855272E+02  0.47000000000E+01 0. -1.
        -13    1    6    6    0    0  0.87317137291E+00  0.21293300773E+02 -0.75226534931E+02  0.78186946761E+02  0.00000000000E+00 0.  1.
         14    1    6    6    0    0  0.15029190469E+02  0.17025448183E+03 -0.14116438518E+03  0.22167509737E+03  0.00000000000E+00 0. -1.
         -5    1    3    3    0  503  0.72230835985E+02 -0.65802033845E+02 -0.15097615263E+03  0.17989744297E+03  0.47000000000E+01 0.  1.
         13    1    4    4    0    0 -0.58054442156E+02 -0.13848947048E+03 -0.25797358738E+03  0.29849627045E+03  0.00000000000E+00 0. -1.
        -14    1    4    4    0    0  0.90521115453E+00  0.71286058991E+01  0.38102851488E+00  0.71959441374E+01  0.00000000000E+00 0.  1.
</event>
<event>
12    1  0.8297444E-002  0.2154856E+03  0.7818608E-02  0.1137368E+00
         21   -1    0    0  501  502  0.00000000000E+00  0.00000000000E+00  0.51579375621E+02  0.51579375621E+02  0.00000000000E+00 0.  1.
         21   -1    0    0  502  503 -0.00000000000E+00 -0.00000000000E+00 -0.94404283238E+03  0.94404283238E+03  0.00000000000E+00 0.  1.
         -6    2    1    2    0  503 -0.21847869155E+02  0.12750077893E+03 -0.55501907934E+03  0.59524392139E+03  0.17185857416E+03 0.  0.
        -24    2    3    3    0    0  0.16637181850E+02  0.44774359350E+02 -0.12697256540E+03  0.15755605574E+03  0.80127019542E+02 0.  0.
          6    2    1    2  501    0  0.21847869155E+02 -0.12750077893E+03 -0.33744437742E+03  0.40037828660E+03  0.17233771067E+03 0.  0.
         24    2    5    5    0    0  0.22511901500E+02 -0.32920684835E+02 -0.63150072746E+02  0.11019680768E+03  0.81023746734E+02 0.  0.
          5    1    5    5  501    0 -0.66403234518E+00 -0.94580094093E+02 -0.27429430467E+03  0.29018147893E+03  0.47000000000E+01 0. -1.
        -11    1    6    6    0    0  0.74901719959E+01 -0.59033023433E+02 -0.35407562060E+02  0.69243743278E+02  0.00000000000E+00 0.  1.
         12    1    6    6    0    0  0.15021729504E+02  0.26112338598E+02 -0.27742510686E+02  0.40953064397E+02  0.00000000000E+00 0. -1.
         -5    1    3    3    0  503 -0.38485051005E+02  0.82726419578E+02 -0.42804651394E+03  0.43768786566E+03  0.47000000000E+01 0.  1.
         13    1    4    4    0    0 -0.25664011498E+02 -0.82312970005E+00 -0.64398727085E+02  0.69329034890E+02  0.00000000000E+00 0. -1.
        -14    1    4    4    0    0  0.42301193348E+02  0.45597489050E+02 -0.62573838313E+02  0.88227020847E+02  0.00000000000E+00 0.  1.
</event>
<event>
12    1  0.8297444E-002  0.3227829E+03  0.7818608E-02  0.1074748E+00
         21   -1    0    0  503  502  0.00000000000E+00  0.00000000000E+00  0.73681274853E+03  0.73681274853E+03  0.00000000000E+00 0.  1.
         21   -1    0    0  501  503 -0.00000000000E+00 -0.00000000000E+00 -0.19588929235E+03  0.19588929235E+03  0.00000000000E+00 0. -1.
          6    2    1    2  501    0 -0.11449592329E+03 -0.24323833312E+03  0.20351546081E+02  0.32017947761E+03  0.17270353009E+03 0.  0.
         24    2    3    3    0    0 -0.17370754743E+02 -0.38877797859E+02  0.29050436956E+02  0.93697055688E+02  0.78243108774E+02 0.  0.
         -6    2    1    2    0  502  0.11449592329E+03  0.24323833312E+03  0.52057191010E+03  0.61252256327E+03  0.17864650508E+03 0.  0.
        -24    2    5    5    0    0  0.95914624226E+02  0.19216896444E+03  0.27318528715E+03  0.35919357498E+03  0.90891678141E+02 0.  0.
          5    1    3    3  501    0 -0.97125168545E+02 -0.20436053526E+03 -0.86988908750E+01  0.22648242192E+03  0.47000000000E+01 0. -1.
        -13    1    4    4    0    0 -0.78732519368E+01 -0.53994722001E+02 -0.54641082582E+01  0.54838623060E+02  0.00000000000E+00 0.  1.
         14    1    4    4    0    0 -0.94975028061E+01  0.15116924141E+02  0.34514545214E+02  0.38858432629E+02  0.00000000000E+00 0. -1.
         -5    1    5    5    0  502  0.18581299062E+02  0.51069368678E+02  0.24738662295E+03  0.25332898829E+03  0.47000000000E+01 0.  1.
         11    1    6    6    0    0  0.55404825378E+02  0.14734849080E+03  0.24799149658E+03  0.29373636954E+03  0.00000000000E+00 0. -1.
        -12    1    6    6    0    0  0.40509798847E+02  0.44820473646E+02  0.25193790572E+02  0.65457205439E+02  0.00000000000E+00 0.  1.
</event>
<event>
12    1  0.8297444E-002  0.2297537E+03  0.7818608E-02  0.1126933E+00
         21   -1    0    0  503  502  0.00000000000E+00  0.00000000000E+00  0.55887466362E+02  0.55887466362E+02  0.00000000000E+00 0.  1.
         21   -1    0    0  501  503 -0.00000000000E+00 -0.00000000000E+00 -0.96280399956E+03  0.96280399956E+03  0.00000000000E+00 0.  1.
          6    2    1    2  501    0 -0.15206015056E+03  0.15143454281E+02 -0.37877556668E+03  0.44300980743E+03  0.17156673912E+03 0.  0.
         24    2    3    3    0    0 -0.16502240198E+03 -0.93626874611E+01 -0.37080545147E+03  0.41378338648E+03  0.79999718857E+02 0.  0.
         -6    2    1    2    0  502  0.15206015056E+03 -0.15143454281E+02 -0.52814096652E+03  0.57568165849E+03  0.17066012367E+03 0.  0.
        -24    2    5    5    0    0  0.10799539773E+03 -0.71788048634E+02 -0.27226768308E+03  0.30989313411E+03  0.71326947682E+02 0.  0.
          5    1    3    3  501    0  0.12962251423E+02  0.24506141742E+02 -0.79701152110E+01  0.29226420949E+02  0.47000000000E+01 0. -1.
        -13    1    4    4    0    0 -0.87950930944E+02  0.14168153688E+01 -0.10581257144E+03  0.13759968711E+03  0.00000000000E+00 0.  1.
         14    1    4    4    0    0 -0.77071471038E+02 -0.10779502830E+02 -0.26499288003E+03  0.27618369937E+03  0.00000000000E+00 0. -1.
         -5    1    5    5    0  502  0.44064752833E+02  0.56644594353E+02 -0.25587328344E+03  0.26578852438E+03  0.47000000000E+01 0.  1.
         11    1    6    6    0    0  0.74296149770E+02 -0.68653759297E+02 -0.13606970894E+03  0.16955300713E+03  0.00000000000E+00 0. -1.
        -12    1    6    6    0    0  0.33699247957E+02 -0.31342893376E+01 -0.13619797414E+03  0.14034012698E+03  0.00000000000E+00 0.  1.
</event>
<event>
12    1  0.8297444E-002  0.2550560E+03  0.7818608E-02  0.1110468E+00
         21   -1    0    0  501  502  0.00000000000E+00  0.00000000000E+00  0.14115414125E+04  0.14115414125E+04  0.00000000000E+00 0.  1.
         21   -1    0    0  502  503 -0.00000000000E+00 -0.00000000000E+00 -0.54119256227E+02  0.54119256227E+02  0.00000000000E+00 0. -1.
         -6    2    1    2    0  503 -0.18705798858E+03  0.18382228797E+02  0.38764268753E+03  0.46290157620E+03  0.16935884573E+03 0.  0.
        -24    2    3    3    0    0 -0.10333683458E+03 -0.29247008733E+02  0.13079057382E+03  0.18854255190E+03  0.83115767325E+02 0.  0.
          6    2    1    2  501    0  0.18705798858E+03 -0.18382228797E+02  0.96977946878E+03  0.10027590926E+04  0.17240934496E+03 0.  0.
         24    2    5    5    0    0  0.19979670394E+03 -0.49599824189E+02  0.83847851807E+03  0.86711675851E+03  0.80413818200E+02 0.  0.
          5    1    5    5  501    0 -0.12738715358E+02  0.31217595393E+02  0.13130095071E+03  0.13564233406E+03  0.47000000000E+01 0. -1.
        -11    1    6    6    0    0  0.68707484145E+02 -0.31270840204E+02  0.46016405414E+03  0.46631485130E+03  0.00000000000E+00 0.  1.
         12    1    6    6    0    0  0.13108921979E+03 -0.18328983986E+02  0.37831446393E+03  0.40080190720E+03  0.00000000000E+00 0. -1.
         -5    1    3    3    0  503 -0.83721154003E+02  0.47629237530E+02  0.25685211372E+03  0.27435902430E+03  0.47000000000E+01 0.  1.
         13    1    4    4    0    0 -0.63319371382E+01  0.24221441132E+02  0.24470979659E+02  0.35008577290E+02  0.00000000000E+00 0. -1.
        -14    1    4    4    0    0 -0.97004897437E+02 -0.53468449865E+02  0.10631959416E+03  0.15353397461E+03  0.00000000000E+00 0.  1.
</event>
<event>
12    1  0.8297444E-002  0.2436300E+03  0.7818608E-02  0.1117857E+00
         21   -1    0    0  503  502  0.00000000000E+00  0.00000000000E+00  0.21253762674E+02  0.21253762674E+02  0.00000000000E+00 0.  1.
         21   -1    0    0  501  503 -0.00000000000E+00 -0.00000000000E+00 -0.31168742069E+04  0.31168742069E+04  0.00000000000E+00 0. -1.
          6    2    1    2  501    0  0.68911441400E+02 -0.15909986712E+03 -0.20860864885E+04  0.21002648492E+04  0.17115503203E+03 0.  0.
         24    2    3    3    0    0  0.71165479858E+02 -0.76768734449E+02 -0.17177780474E+04  0.17228304922E+04  0.80159344957E+02 0.  0.
         -6    2    1    2    0  502 -0.68911441400E+02  0.15909986712E+03 -0.10095339557E+04  0.10378631204E+04  0.16715111219E+03 0.  0.
        -24    2    5    5    0    0 -0.40196676288E+02  0.50580539600E+02 -0.71974240419E+03  0.72705415083E+03  0.80027783182E+02 0.  0.
          5    1    3    3  501    0 -0.22540384584E+01 -0.82331132671E+02 -0.36830844105E+03  0.37743435700E+03  0.47000000000E+01 0. -1.
        -11    1    4    4    0    0  0.44726984744E+02 -0.77080088111E+02 -0.85184365005E+03  0.85649252611E+03  0.00000000000E+00 0.  1.
         12    1    4    4    0    0  0.26438495114E+02  0.31135366170E+00 -0.86593439738E+03  0.86633796611E+03  0.00000000000E+00 0. -1.
         -5    1    5    5    0  502 -0.28714765112E+02  0.10851932752E+03 -0.28979155155E+03  0.31080896952E+03  0.47000000000E+01 0.  1.
         13    1    6    6    0    0  0.16030646285E+02  0.42057075800E+02 -0.36834187243E+03  0.37108154660E+03  0.00000000000E+00 0. -1.
        -14    1    6    6    0    0 -0.56227322572E+02  0.85234637998E+01 -0.35140053176E+03  0.35597260423E+03  0.00000000000E+00 0.  1.
</event>
<event>
12    1  0.8297444E-002  0.1997924E+03  0.7818608E-02  0.1150180E+00
         21   -1    0    0  501  502  0.00000000000E+00  0.00000000000E+00  0.12520447491E+04  0.12520447491E+04  0.00000000000E+00 0. -1.
         21   -1    0    0  502  503 -0.00000000000E+00 -0.00000000000E+00 -0.37717439358E+02  0.37717439358E+02  0.00000000000E+00 0. -1.
         -6    2    1    2    0  503 -0.99107336492E+02  0.21229428317E+02  0.86674540851E+03  0.88947433998E+03  0.17217446249E+03 0.  0.
        -24    2    3    3    0    0 -0.13513019826E+02 -0.30895241959E+01  0.18228366212E+03  0.19923686579E+03  0.79220252150E+02 0.  0.
          6    2    1    2  501    0  0.99107336492E+02 -0.21229428317E+02  0.34758190123E+03  0.40028784847E+03  0.17071681465E+03 0.  0.
         24    2    5    5    0    0  0.12132704448E+03  0.16076978547E+02  0.20446149935E+03  0.25065154656E+03  0.77736555865E+02 0.  0.
          5    1    5    5  501    0 -0.22219707985E+02 -0.37306406863E+02  0.14312040188E+03  0.14963630191E+03  0.47000000000E+01 0. -1.
        -11    1    6    6    0    0  0.33191182722E+01  0.16695781537E+02  0.68664348992E+02  0.70742904165E+02  0.00000000000E+00 0.  1.
         12    1    6    6    0    0  0.11800792620E+03 -0.61880299043E+00  0.13579715035E+03  0.17990864239E+03  0.00000000000E+00 0. -1.
         -5    1    3    3    0  503 -0.85594316666E+02  0.24318952513E+02  0.68446174640E+03  0.69023747419E+03  0.47000000000E+01 0.  1.
         11    1    4    4    0    0 -0.91210832038E+01 -0.37359854964E+02  0.13689442362E+03  0.14219365717E+03  0.00000000000E+00 0. -1.
        -12    1    4    4    0    0 -0.43919366226E+01  0.34270330768E+02  0.45389238503E+02  0.57043208624E+02  0.00000000000E+00 0.  1.
</event>
<event>
12    1  0.8297444E-002  0.1752809E+03  0.7818608E-02  0.1172834E+00
         21   -1    0    0  503  502  0.00000000000E+00  0.00000000000E+00  0.11540153836E+03  0.11540153836E+03  0.00000000000E+00 0.  1.
         21   -1    0    0  501  503 -0.00000000000E+00 -0.00000000000E+00 -0.41551919779E+03  0.41551919779E+03  0.00000000000E+00 0.  1.
          6    2    1    2  501    0 -0.25348414325E+02 -0.14746778573E+02 -0.31081945341E+03  0.35683626401E+03  0.17281023439E+03 0.  0.
         24    2    3    3    0    0 -0.70947478710E+02 -0.36021295664E+02 -0.15199579146E+03  0.19016615468E+03  0.82032720833E+02 0.  0.
         -6    2    1    2    0  502  0.25348414325E+02  0.14746778573E+02  0.10701793971E+02  0.17408447214E+03  0.17126256292E+03 0.  0.
        -24    2    5    5    0    0 -0.31067896316E+02 -0.29493317369E+02 -0.24011632588E+02  0.94290373491E+02  0.80492521904E+02 0.  0.
          5    1    3    3  501    0  0.45599064384E+02  0.21274517091E+02 -0.15882366194E+03  0.16667010933E+03  0.47000000000E+01 0. -1.
        -13    1    4    4    0    0 -0.32011275699E+02 -0.11692678536E+01 -0.12927471373E+03  0.13318423544E+03  0.00000000000E+00 0.  1.
         14    1    4    4    0    0 -0.38936203011E+02 -0.34852027810E+02 -0.22721077734E+02  0.56981919244E+02  0.00000000000E+00 0. -1.
         -5    1    5    5    0  502  0.56416310642E+02  0.44240095942E+02  0.34713426559E+02  0.79794098647E+02  0.47000000000E+01 0.  1.
         13    1    6    6    0    0 -0.41852146553E+02 -0.31821422402E+02  0.14247739278E+02  0.54472040253E+02  0.00000000000E+00 0. -1.
        -14    1    6    6    0    0  0.10784250236E+02  0.23281050333E+01 -0.38259371867E+02  0.39818333238E+02  0.00000000000E+00 0.  1.
</event>
<event>
12    1  0.8297444E-002  0.1924948E+03  0.7818608E-02  0.1156688E+00
         21   -1    0    0  501  502  0.00000000000E+00  0.00000000000E+00  0.24329838412E+03  0.24329838412E+03  0.00000000000E+00 0. -1.
         21   -1    0    0  502  503 -0.00000000000E+00 -0.00000000000E+00 -0.15443365078E+03  0.15443365078E+03  0.00000000000E+00 0. -1.
         -6    2    1    2    0  503 -0.79100820341E+02  0.18917598530E+02  0.13187625674E+02  0.19089572175E+03  0.17219886120E+03 0.  0.
        -24    2    3    3    0    0  0.11716767418E+02 -0.51565688830E+01 -0.31517136539E+02  0.86741962591E+02  0.79793266239E+02 0.  0.
          6    2    1    2  501    0  0.79100820341E+02 -0.18917598530E+02  0.75677107665E+02  0.20683631316E+03  0.17446896716E+03 0.  0.
         24    2    5    5    0    0  0.10000288626E+03 -0.39435221715E+02  0.90952856157E+01  0.13394531064E+03  0.79390856212E+02 0.  0.
          5    1    5    5  501    0 -0.20902065915E+02  0.20517623185E+02  0.66581822049E+02  0.72891002518E+02  0.47000000000E+01 0. -1.
        -11    1    6    6    0    0  0.36059758854E+02 -0.56161752416E+02  0.11886033331E+02  0.67791787345E+02  0.00000000000E+00 0.  1.
         12    1    6    6    0    0  0.63943127402E+02  0.16726530701E+02 -0.27907477151E+01  0.66153523293E+02  0.00000000000E+00 0. -1.
         -5    1    3    3    0  503 -0.90817587759E+02  0.24074167412E+02  0.44704762212E+02  0.10415375916E+03  0.47000000000E+01 0.  1.
         11    1    4    4    0    0 -0.23218956437E+02 -0.19516677377E+02 -0.37785199796E+02  0.48453503047E+02  0.00000000000E+00 0. -1.
        -12    1    4    4    0    0  0.34935723855E+02  0.14360108494E+02  0.62680632577E+01  0.38288459544E+02  0.00000000000E+00 0.  1.
</event>
<event>
12    1  0.8297444E-002  0.1812636E+03  0.7818608E-02  0.1167525E+00
         21   -1    0    0  501  502  0.00000000000E+00  0.00000000000E+00  0.10116335465E+03  0.10116335465E+03  0.00000000000E+00 0. -1.
         21   -1    0    0  502  503 -0.00000000000E+00 -0.00000000000E+00 -0.31916106520E+03  0.31916106520E+03  0.00000000000E+00 0. -1.
         -6    2    1    2    0  503  0.51599149254E+02  0.12498205699E+02 -0.96884316559E+02  0.20553116612E+03  0.17331420052E+03 0.  0.
        -24    2    3    3    0    0  0.87704489664E+02  0.14219888692E+02 -0.23293172353E+02  0.12340744053E+03  0.82416877875E+02 0.  0.
          6    2    1    2  501    0 -0.51599149254E+02 -0.12498205699E+02 -0.12111339399E+03  0.21479325373E+03  0.16926018520E+03 0.  0.
         24    2    5    5    0    0 -0.30786662969E+02  0.41302088218E+02 -0.17280784817E+02  0.95919657255E+02  0.79046024670E+02 0.  0.
          5    1    5    5  501    0 -0.20812486285E+02 -0.53800293917E+02 -0.10383260918E+03  0.11887359648E+03  0.47000000000E+01 0. -1.
        -11    1    6    6    0    0  0.23095563217E+02 -0.26538285515E+01 -0.12052879723E+02  0.26186251276E+02  0.00000000000E+00 0.  1.
         12    1    6    6    0    0 -0.53882226186E+02  0.43955916769E+02 -0.52279050940E+01  0.69733405979E+02  0.00000000000E+00 0. -1.
         -5    1    3    3    0  503 -0.36105340410E+02 -0.17216829924E+01 -0.73591144206E+02  0.82123725586E+02  0.47000000000E+01 0.  1.
         11    1    4    4    0    0  0.33838513655E+02  0.38678595885E+02 -0.36194772524E+02  0.62858096886E+02  0.00000000000E+00 0. -1.
        -12    1    4    4    0    0  0.53865976009E+02 -0.24458707194E+02  0.12901600171E+02  0.60549343646E+02  0.00000000000E+00 0.  1.
</event>
<event>
12    1  0.8297444E-002  0.2314816E+03  0.7818608E-02  0.1125741E+00
         21   -1    0    0  501  502  0.00000000000E+00  0.00000000000E+00  0.12963057977E+03  0.12963057977E+03  0.00000000000E+00 0.  1.
         21   -1    0    0  502  503 -0.00000000000E+00 -0.00000000000E+00 -0.45743307623E+03  0.45743307623E+03  0.00000000000E+00 0.  1.
         -6    2    1    2    0  503  0.11856979436E+03 -0.98978676270E+02 -0.71073922024E+02  0.24138563540E+03  0.17134744847E+03 0.  0.
        -24    2    3    3    0    0 -0.82833781862E+01 -0.46268887458E+02 -0.42487068017E+02  0.10099565199E+03  0.78648245191E+02 0.  0.
          6    2    1    2  501    0 -0.11856979436E+03  0.98978676270E+02 -0.25672857443E+03  0.34567802060E+03  0.17241855614E+03 0.  0.
         24    2    5    5    0    0 -0.41048379289E+02  0.29681517458E+02 -0.35847976582E+02  0.10150186590E+03  0.80321786808E+02 0.  0.
          5    1    5    5  501    0 -0.77521415068E+02  0.69297158812E+02 -0.22088059785E+03  0.24417615469E+03  0.47000000000E+01 0. -1.
        -13    1    6    6    0    0 -0.44014129892E+02  0.49989828623E+02 -0.82574088469E+01  0.67114911881E+02  0.00000000000E+00 0.  1.
         14    1    6    6    0    0  0.29657506028E+01 -0.20308311165E+02 -0.27590567736E+02  0.34386954023E+02  0.00000000000E+00 0. -1.
         -5    1    3    3    0  503  0.12685317254E+03 -0.52709788812E+02 -0.28586854007E+02  0.14038998341E+03  0.47000000000E+01 0.  1.
         11    1    4    4    0    0  0.35029153261E+01  0.21396138149E+02 -0.17657248840E+02  0.27961465986E+02  0.00000000000E+00 0. -1.
        -12    1    4    4    0    0 -0.11786293512E+02 -0.67665025606E+02 -0.24829819176E+02  0.73034186005E+02  0.00000000000E+00 0.  1.
</event>
<event>
12    1  0.8297444E-002  0.2146755E+03  0.7818608E-02  0.1137951E+00
         21   -1    0    0  501  502  0.00000000000E+00  0.00000000000E+00  0.26973554598E+03  0.26973554598E+03  0.00000000000E+00 0. -1.
         21   -1    0    0  502  503 -0.00000000000E+00 -0.00000000000E+00 -0.35801756464E+03  0.35801756464E+03  0.00000000000E+00 0. -1.
         -6    2    1    2    0  503 -0.87237712803E+02 -0.96330125199E+02 -0.27116321776E+03  0.34574048371E+03  0.17063727569E+03 0.  0.
        -24    2    3    3    0    0 -0.82931291601E+02 -0.12985741688E+03 -0.18783009820E+03  0.25568981261E+03  0.79728204778E+02 0.  0.
          6    2    1    2  501    0  0.87237712803E+02  0.96330125199E+02  0.18288119910E+03  0.28201262691E+03  0.17086742579E+03 0.  0.
         24    2    5    5    0    0  0.28057560153E+02  0.44130653982E+02  0.12516537865E+02  0.94200798044E+02  0.77345881140E+02 0.  0.
          5    1    5    5  501    0  0.59180152651E+02  0.52199471217E+02  0.17036466123E+03  0.18781182886E+03  0.47000000000E+01 0. -1.
        -11    1    6    6    0    0  0.30600156964E+02 -0.13123175277E+02  0.15680927517E+02  0.36803244740E+02  0.00000000000E+00 0.  1.
         12    1    6    6    0    0 -0.25425968116E+01  0.57253829259E+02 -0.31643896518E+01  0.57397553304E+02  0.00000000000E+00 0. -1.
         -5    1    3    3    0  503 -0.43064212019E+01  0.33527291678E+02 -0.83333119559E+02  0.90050671104E+02  0.47000000000E+01 0.  1.
         13    1    4    4    0    0 -0.23974448690E+02 -0.97180528404E+02 -0.78307338566E+02  0.12708606754E+03  0.00000000000E+00 0. -1.
        -14    1    4    4    0    0 -0.58956842912E+02 -0.32676888473E+02 -0.10952275963E+03  0.12860374506E+03  0.00000000000E+00 0.  1.
</event>
<event>
12    1  0.8297444E-002  0.2109801E+03  0.7818608E-02  0.1140913E+00
         21   -1    0    0  503  502  0.00000000000E+00  0.00000000000E+00  0.35214408274E+03  0.35214408274E+03  0.00000000000E+00 0. -1.
         21   -1    0    0  501  503 -0.00000000000E+00 -0.00000000000E+00 -0.12788891688E+03  0.12788891688E+03  0.00000000000E+00 0. -1.
          6    2    1    2  501    0  0.10871949171E+03 -0.45144420126E+02  0.14084767081E+03  0.25316427315E+03  0.17434487742E+03 0.  0.
         24    2    3    3    0    0  0.40410050610E+02  0.38063899595E+02  0.95433218773E+02  0.13622682548E+03  0.79802356434E+02 0.  0.
         -6    2    1    2    0  502 -0.10871949171E+03  0.45144420126E+02  0.83407495052E+02  0.22686872647E+03  0.17508472884E+03 0.  0.
        -24    2    5    5    0    0 -0.13997914749E+03  0.23015410027E+02  0.35686760219E+02  0.16549920879E+03  0.77411707294E+02 0.  0.
          5    1    3    3  501    0  0.68309441101E+02 -0.83208319721E+02  0.45414452039E+02  0.11693744767E+03  0.47000000000E+01 0. -1.
        -13    1    4    4    0    0  0.21494934093E+02 -0.21486148789E+02  0.51661249111E+02  0.59938063375E+02  0.00000000000E+00 0.  1.
         14    1    4    4    0    0  0.18915116518E+02  0.59550048385E+02  0.43771969661E+02  0.76288762105E+02  0.00000000000E+00 0. -1.
         -5    1    5    5    0  502  0.31259655774E+02  0.22129010099E+02  0.47720734833E+02  0.61369517679E+02  0.47000000000E+01 0.  1.
         13    1    6    6    0    0 -0.85882191508E+02  0.32206755813E+02 -0.12376464842E+02  0.92553783392E+02  0.00000000000E+00 0. -1.
        -14    1    6    6    0    0 -0.54096955977E+02 -0.91913457856E+01  0.48063225061E+02  0.72945425399E+02  0.00000000000E+00 0.  1.
</event>
<event>
12    1  0.8297444E-002  0.2588310E+03  0.7818608E-02  0.1107865E+00
         21   -1    0    0  501  502  0.00000000000E+00  0.00000000000E+00  0.92070869446E+03  0.92070869446E+03  0.00000000000E+00 0. -1.
         21   -1    0    0  502  503 -0.00000000000E+00 -0.00000000000E+00 -0.26197212523E+03  0.26197212523E+03  0.00000000000E+00 0.  1.
         -6    2    1    2    0  503  0.29971430112E+01  0.19429204478E+03 -0.17324703740E+03  0.31136561180E+03  0.17080874307E+03 0.  0.
        -24    2    3    3    0    0  0.79150691311E+01  0.16860865921E+03 -0.63432726981E+02  0.19838289159E+03  0.82707512019E+02 0.  0.
          6    2    1    2  501    0 -0.29971430112E+01 -0.19429204478E+03  0.83198360663E+03  0.87131520789E+03  0.17098271340E+03 0.  0.
         24    2    5    5    0    0  0.28725915898E+02 -0.69894030519E+02  0.21747710521E+03  0.24352420071E+03  0.79356104328E+02 0.  0.
          5    1    5    5  501    0 -0.31723058909E+02 -0.12439801426E+03  0.61450650142E+03  0.62779100719E+03  0.47000000000E+01 0. -1.
        -13    1    6    6    0    0 -0.21802762663E+02 -0.25056565047E+02  0.31973968913E+02  0.46103433709E+02  0.00000000000E+00 0.  1.
         14    1    6    6    0    0  0.50528678561E+02 -0.44837465472E+02  0.18550313629E+03  0.19742076700E+03  0.00000000000E+00 0. -1.
         -5    1    3    3    0  503 -0.49179261199E+01  0.25683385570E+02 -0.10981431042E+03  0.11298272020E+03  0.47000000000E+01 0.  1.
         13    1    4    4    0    0  0.31638269241E+02  0.78594811810E+02  0.17515370773E+01  0.84741916465E+02  0.00000000000E+00 0. -1.
        -14    1    4    4    0    0 -0.23723200110E+02  0.90013847403E+02 -0.65184264058E+02  0.11364097513E+03  0.00000000000E+00 0.  1.
</event>
<event>
12    1  0.8297444E-002  0.1787457E+03  0.7818608E-02  0.1169184E+00
         21   -1    0    0  501  502  0.00000000000E+00  0.00000000000E+00  0.87054224148E+03  0.87054224148E+03  0.00000000000E+00 0. -1.
         21   -1    0    0  502  503 -0.00000000000E+00 -0.00000000000E+00 -0.72274798120E+02  0.72274798120E+02  0.00000000000E+00 0. -1.
         -6    2    1    2    0  503 -0.35818964425E+02 -0.19983720078E+02  0.68153998495E+02  0.19129814417E+03  0.17397604770E+03 0.  0.
        -24    2    3    3    0    0  0.11967909222E+02 -0.56537001189E+02  0.37822937414E+02  0.12375711280E+03  0.10269169888E+03 0.  0.
          6    2    1    2  501    0  0.35818964425E+02  0.19983720078E+02  0.73011344486E+03  0.75151889542E+03  0.17329933793E+03 0.  0.
         24    2    5    5    0    0  0.54251961343E+02  0.70287365254E+02  0.57821092285E+03  0.59037703777E+03  0.79583832536E+02 0.  0.
          5    1    5    5  501    0 -0.18432996917E+02 -0.50303645176E+02  0.15190252202E+03  0.16114185766E+03  0.47000000000E+01 0. -1.
        -13    1    6    6    0    0  0.53906432100E+02  0.20574554909E+02  0.17868375457E+03  0.18776874041E+03  0.00000000000E+00 0.  1.
         14    1    6    6    0    0  0.34552924227E+00  0.49712810345E+02  0.39952716828E+03  0.40260829735E+03  0.00000000000E+00 0. -1.
         -5    1    3    3    0  503 -0.47786873647E+02  0.36553281112E+02  0.30331061081E+02  0.67541031376E+02  0.47000000000E+01 0.  1.
         11    1    4    4    0    0  0.71623657489E+01  0.27597065041E+02 -0.54459401470E+01  0.29026810815E+02  0.00000000000E+00 0. -1.
        -12    1    4    4    0    0  0.48055434734E+01 -0.84134066231E+02  0.43268877561E+02  0.94730301984E+02  0.00000000000E+00 0.  1.
</event>
<event>
12    1  0.8297444E-002  0.3715567E+03  0.7818608E-02  0.1054162E+00
         21   -1    0    0  501  502  0.00000000000E+00  0.00000000000E+00  0.19767969169E+03  0.19767969169E+03  0.00000000000E+00 0. -1.
         21   -1    0    0  502  503 -0.00000000000E+00 -0.00000000000E+00 -0.74181458501E+03  0.74181458501E+03  0.00000000000E+00 0.  1.
         -6    2    1    2    0  503 -0.24640751929E+03 -0.21664178087E+03 -0.38712157579E+03  0.53612402755E+03  0.17296106990E+03 0.  0.
        -24    2    3    3    0    0 -0.22493357322E+03 -0.11572141859E+03 -0.30314020017E+03  0.40300373859E+03  0.80817530751E+02 0.  0.
          6    2    1    2  501    0  0.24640751929E+03  0.21664178087E+03 -0.15701331754E+03  0.40337024915E+03  0.17436756932E+03 0.  0.
         24    2    5    5    0    0  0.61727327286E+02  0.10999813245E+03 -0.24535319589E+02  0.15226837538E+03  0.81693476841E+02 0.  0.
          5    1    5    5  501    0  0.18468019200E+03  0.10664364842E+03 -0.13247799795E+03  0.25110187376E+03  0.47000000000E+01 0. -1.
        -11    1    6    6    0    0  0.65049670446E+02  0.11866667696E+03 -0.33448417876E+02  0.13939883968E+03  0.00000000000E+00 0.  1.
         12    1    6    6    0    0 -0.33223431598E+01 -0.86685445139E+01  0.89130982877E+01  0.12869535701E+02  0.00000000000E+00 0. -1.
         -5    1    3    3    0  503 -0.21473946068E+02 -0.10092036229E+03 -0.83981375612E+02  0.13312028896E+03  0.47000000000E+01 0.  1.
         11    1    4    4    0    0 -0.18222707276E+02 -0.40352720474E+01 -0.68319911785E+02  0.70823448287E+02  0.00000000000E+00 0. -1.
        -12    1    4    4    0    0 -0.20671086595E+03 -0.11168614654E+03 -0.23482028839E+03  0.33218029031E+03  0.00000000000E+00 0.  1.
</event>
<event>
12    1  0.8297444E-002  0.1795942E+03  0.7818608E-02  0.1169096E+00
         21   -1    0    0  501  502  0.00000000000E+00  0.00000000000E+00  0.46819548019E+03  0.46819548019E+03  0.00000000000E+00 0. -1.
         21   -1    0    0  502  503 -0.00000000000E+00 -0.00000000000E+00 -0.67878411964E+02  0.67878411964E+02  0.00000000000E+00 0. -1.
         -6    2    1    2    0  503  0.27426607447E+02  0.23157128068E+02  0.18195887920E+03  0.25566210516E+03  0.17597047173E+03 0.  0.
        -24    2    3    3    0    0  0.66069147131E+02 -0.29694402920E+02  0.79376833633E+02  0.13387665335E+03  0.79846019487E+02 0.  0.
          6    2    1    2  501    0 -0.27426607447E+02 -0.23157128068E+02  0.21835818903E+03  0.28041178699E+03  0.17222659548E+03 0.  0.
         24    2    5    5    0    0 -0.99457895873E+01 -0.57480336394E+02  0.21845892925E+03  0.24160764067E+03  0.85129551038E+02 0.  0.
          5    1    5    5  501    0 -0.17480817860E+02  0.34323208327E+02 -0.10074021918E+00  0.38804146318E+02  0.47000000000E+01 0. -1.
        -11    1    6    6    0    0 -0.24426309550E+02 -0.14317754282E+02  0.12982201105E+02  0.31147716311E+02  0.00000000000E+00 0.  1.
         12    1    6    6    0    0  0.14480519962E+02 -0.43162582113E+02  0.20547672814E+03  0.21045992436E+03  0.00000000000E+00 0. -1.
         -5    1    3    3    0  503 -0.38642539684E+02  0.52851530988E+02  0.10258204556E+03  0.12178545181E+03  0.47000000000E+01 0.  1.
         11    1    4    4    0    0 -0.18473370772E+02 -0.71793988554E+01  0.98882566902E+01  0.22149194477E+02  0.00000000000E+00 0. -1.
        -12    1    4    4    0    0  0.84542517903E+02 -0.22515004065E+02  0.69488576943E+02  0.11172745888E+03  0.00000000000E+00 0.  1.
</event>
<event>
12    1  0.8297444E-002  0.2265403E+03  0.7818608E-02  0.1129121E+00
         21   -1    0    0  501  502  0.00000000000E+00  0.00000000000E+00  0.23505397275E+03  0.23505397275E+03  0.00000000000E+00 0.  1.
         21   -1    0    0  502  503 -0.00000000000E+00 -0.00000000000E+00 -0.22842863225E+03  0.22842863225E+03  0.00000000000E+00 0. -1.
         -6    2    1    2    0  503  0.13595611994E+03 -0.56061978399E+02 -0.45686960235E+02  0.23098081372E+03  0.17215639982E+03 0.  0.
        -24    2    3    3    0    0  0.83700339118E+02  0.34217494465E+02 -0.15915595116E+02  0.12240146931E+03  0.80945845023E+02 0.  0.
          6    2    1    2  501    0 -0.13595611994E+03  0.56061978399E+02  0.52312300734E+02  0.23250179129E+03  0.17231800304E+03 0.  0.
         24    2    5    5    0    0 -0.89186053330E+02  0.76691814241E+02  0.90330051138E+02  0.16862324556E+03  0.80240228846E+02 0.  0.
          5    1    5    5  501    0 -0.46770066613E+02 -0.20629835842E+02 -0.38017750405E+02  0.63878545723E+02  0.47000000000E+01 0. -1.
        -13    1    6    6    0    0 -0.23894188371E+01  0.15433521204E+02 -0.13076904637E+02  0.20369298810E+02  0.00000000000E+00 0.  1.
         14    1    6    6    0    0 -0.86796634493E+02  0.61258293037E+02  0.10340695577E+03  0.14825394675E+03  0.00000000000E+00 0. -1.
         -5    1    3    3    0  503  0.52255780826E+02 -0.90279472864E+02 -0.29771365120E+02  0.10857934440E+03  0.47000000000E+01 0.  1.
         11    1    4    4    0    0  0.52298503126E+02 -0.21090610977E+02  0.16649042023E+01  0.56415593648E+02  0.00000000000E+00 0. -1.
        -12    1    4    4    0    0  0.31401835991E+02  0.55308105442E+02 -0.17580499318E+02  0.65985875666E+02  0.00000000000E+00 0.  1.
</event>
<event>
12    1  0.8297444E-002  0.1852899E+03  0.7818608E-02  0.1162799E+00
         21   -1    0    0  501  502  0.00000000000E+00  0.00000000000E+00  0.16483136207E+03  0.16483136207E+03  0.00000000000E+00 0. -1.
         21   -1    0    0  502  503 -0.00000000000E+00 -0.00000000000E+00 -0.23602817697E+03  0.23602817697E+03  0.00000000000E+00 0. -1.
         -6    2    1    2    0  503  0.54519342930E+02  0.40346837793E+02  0.33221138426E+02  0.18824448764E+03  0.17243003513E+03 0.  0.
        -24    2    3    3    0    0 -0.30789788966E+02  0.21481506760E+02  0.46662680376E+02  0.99721531581E+02  0.79734007072E+02 0.  0.
          6    2    1    2  501    0 -0.54519342930E+02 -0.40346837793E+02 -0.10441795333E+03  0.21261505140E+03  0.17234217426E+03 0.  0.
         24    2    5    5    0    0 -0.13094727430E+02  0.37632122155E+01  0.10719743351E+02  0.82459473423E+02  0.80616488432E+02 0.  0.
          5    1    5    5  501    0 -0.41424615500E+02 -0.44110050009E+02 -0.11513769668E+03  0.13015557798E+03  0.47000000000E+01 0. -1.
        -13    1    6    6    0    0 -0.15594504538E+02  0.10780448468E+02 -0.33027909693E+02  0.38082140954E+02  0.00000000000E+00 0.  1.
         14    1    6    6    0    0  0.24997771078E+01 -0.70172362523E+01  0.43747653044E+02  0.44377332469E+02  0.00000000000E+00 0. -1.
         -5    1    3    3    0  503  0.85309131896E+02  0.18865331034E+02 -0.13441541949E+02  0.88522956062E+02  0.47000000000E+01 0.  1.
         11    1    4    4    0    0 -0.20255624377E+01  0.43553233599E+02  0.46111576376E+02  0.63460732236E+02  0.00000000000E+00 0. -1.
        -12    1    4    4    0    0 -0.28764226529E+02 -0.22071726840E+02  0.55110400004E+00  0.36260799345E+02  0.00000000000E+00 0.  1.
</event>
<event>
12    1  0.8297444E-002  0.2116607E+03  0.7818608E-02  0.1141031E+00
         21   -1    0    0  503  502  0.00000000000E+00  0.00000000000E+00  0.16154871279E+03  0.16154871279E+03  0.00000000000E+00 0.  1.
         21   -1    0    0  501  503 -0.00000000000E+00 -0.00000000000E+00 -0.36194650463E+03  0.36194650463E+03  0.00000000000E+00 0.  1.
          6    2    1    2  501    0 -0.62945976782E+02 -0.10258973002E+03 -0.23122097118E+03  0.31346991803E+03  0.17410744757E+03 0.  0.
         24    2    3    3    0    0 -0.12629972492E+02 -0.86554059733E+02 -0.56412190856E+02  0.13079796428E+03  0.79212692929E+02 0.  0.
         -6    2    1    2    0  502  0.62945976782E+02  0.10258973002E+03  0.30823179344E+02  0.21002529939E+03  0.16933313114E+03 0.  0.
        -24    2    5    5    0    0 -0.10291960850E+02  0.51282390518E+02 -0.31253559328E+02  0.10106727959E+03  0.80634992392E+02 0.  0.
          5    1    3    3  501    0 -0.50316004290E+02 -0.16035670284E+02 -0.17480878032E+03  0.18267195375E+03  0.47000000000E+01 0. -1.
        -13    1    4    4    0    0  0.26580357952E+01 -0.43837799102E+02 -0.70701141052E+02  0.83231419131E+02  0.00000000000E+00 0.  1.
         14    1    4    4    0    0 -0.15288008288E+02 -0.42716260631E+02  0.14288950196E+02  0.47566545149E+02  0.00000000000E+00 0. -1.
         -5    1    5    5    0  502  0.73237937632E+02  0.51307339499E+02  0.62076738672E+02  0.10895801980E+03  0.47000000000E+01 0.  1.
         13    1    6    6    0    0  0.21323454180E+02 -0.11331359831E+02  0.31170828691E+00  0.24149256217E+02  0.00000000000E+00 0. -1.
        -14    1    6    6    0    0 -0.31615415030E+02  0.62613750349E+02 -0.31565267615E+02  0.76918023375E+02  0.00000000000E+00 0.  1.
</event>
<event>
12    1  0.8297444E-002  0.1771453E+03  0.7818608E-02  0.1171246E+00
         21   -1    0    0  503  502  0.00000000000E+00  0.00000000000E+00  0.32811772122E+03  0.32811772122E+03  0.00000000000E+00 0.  1.
         21   -1    0    0  501  503 -0.00000000000E+00 -0.00000000000E+00 -0.99611236505E+02  0.99611236505E+02  0.00000000000E+00 0.  1.
          6    2    1    2  501    0  0.27804703181E+02  0.75117029186E+01  0.16315354977E+03  0.23891300560E+03  0.17213603992E+03 0.  0.
         24    2    3    3    0    0 -0.42502047169E+02 -0.27750423636E+02  0.10281288536E+03  0.13966814429E+03  0.79750806315E+02 0.  0.
         -6    2    1    2    0  502 -0.27804703181E+02 -0.75117029186E+01  0.65352934938E+02  0.18881595212E+03  0.17478824466E+03 0.  0.
        -24    2    5    5    0    0 -0.79561760594E+02  0.10177706963E+02  0.13931205008E+02  0.11359632355E+03  0.79223650403E+02 0.  0.
          5    1    3    3  501    0  0.70306750350E+02  0.35262126554E+02  0.60340664410E+02  0.99244861305E+02  0.47000000000E+01 0. -1.
        -13    1    4    4    0    0  0.59756487148E+01 -0.34838393426E+02  0.76000102052E+02  0.83817883212E+02  0.00000000000E+00 0.  1.
         14    1    4    4    0    0 -0.48477695884E+02  0.70879697907E+01  0.26812783312E+02  0.55850261082E+02  0.00000000000E+00 0. -1.
         -5    1    5    5    0  502  0.51757057413E+02 -0.17689409881E+02  0.51421729930E+02  0.75219628575E+02  0.47000000000E+01 0.  1.
         11    1    6    6    0    0 -0.71834675059E+02 -0.22412893791E+02 -0.44658323875E+01  0.75382371997E+02  0.00000000000E+00 0. -1.
        -12    1    6    6    0    0 -0.77270855348E+01  0.32590600754E+02  0.18397037395E+02  0.38213951553E+02  0.00000000000E+00 0.  1.
</event>
<event>
12    1  0.8297444E-002  0.1820148E+03  0.7818608E-02  0.1166588E+00
         21   -1    0    0  503  502  0.00000000000E+00  0.00000000000E+00  0.15058901016E+03  0.15058901016E+03  0.00000000000E+00 0. -1.
         21   -1    0    0  501  503 -0.00000000000E+00 -0.00000000000E+00 -0.28454632559E+03  0.28454632559E+03  0.00000000000E+00 0. -1.
          6    2    1    2  501    0  0.38423364184E+02  0.51079670386E+02 -0.17387777311E+03  0.25171984986E+03  0.17042275432E+03 0.  0.
         24    2    3    3    0    0  0.21901610308E+02 -0.38123075650E+02 -0.10443020334E+03  0.13737321371E+03  0.77670348553E+02 0.  0.
         -6    2    1    2    0  502 -0.38423364184E+02 -0.51079670386E+02  0.39920457681E+02  0.18341548590E+03  0.16721874860E+03 0.  0.
        -24    2    5    5    0    0  0.27910498366E+01 -0.59297067186E+02 -0.29968504212E+02  0.10172882525E+03  0.76985131720E+02 0.  0.
          5    1    3    3  501    0  0.16521753876E+02  0.89202746036E+02 -0.69447569774E+02  0.11434663615E+03  0.47000000000E+01 0. -1.
        -13    1    4    4    0    0 -0.20568766470E+02 -0.27332487494E+01 -0.68174716637E+02  0.71262450080E+02  0.00000000000E+00 0.  1.
         14    1    4    4    0    0  0.42470376778E+02 -0.35389826901E+02 -0.36255486702E+02  0.66110763630E+02  0.00000000000E+00 0. -1.
         -5    1    5    5    0  502 -0.41214414021E+02  0.82173968004E+01  0.69888961893E+02  0.81686660647E+02  0.47000000000E+01 0.  1.
         11    1    6    6    0    0 -0.14929992841E+02 -0.53078524206E+02  0.11393200224E+02  0.56303103196E+02  0.00000000000E+00 0. -1.
        -12    1    6    6    0    0  0.17721042677E+02 -0.62185429802E+01 -0.41361704435E+02  0.45425722055E+02  0.00000000000E+00 0.  1.
</event>
<event>
12    1  0.8297444E-002  0.2136934E+03  0.7818608E-02  0.1138786E+00
         21   -1    0    0  503  502  0.00000000000E+00  0.00000000000E+00  0.11089348451E+03  0.11089348451E+03  0.00000000000E+00 0.  1.
         21   -1    0    0  501  503 -0.00000000000E+00 -0.00000000000E+00 -0.11525191041E+04  0.11525191041E+04  0.00000000000E+00 0.  1.
          6    2    1    2  501    0 -0.74616763198E+02  0.10257286817E+03 -0.10278723190E+04  0.10498506353E+04  0.17197673579E+03 0.  0.
         24    2    3    3    0    0 -0.20518646989E+02  0.24253540251E+01 -0.65160860667E+03  0.65671884826E+03  0.79113666088E+02 0.  0.
         -6    2    1    2    0  502  0.74616763198E+02 -0.10257286817E+03 -0.13753300616E+02  0.21356195333E+03  0.17126207985E+03 0.  0.
        -24    2    5    5    0    0  0.94787995089E+02 -0.11210440933E+03 -0.44714736299E+02  0.17511160388E+03  0.84335660117E+02 0.  0.
          5    1    3    3  501    0 -0.54098116209E+02  0.10014751415E+03 -0.37626371232E+03  0.39313178703E+03  0.47000000000E+01 0. -1.
        -11    1    4    4    0    0 -0.49569797869E+02  0.15304634477E+01 -0.31768137598E+03  0.32152910260E+03  0.00000000000E+00 0.  1.
         12    1    4    4    0    0  0.29051150880E+02  0.89489057742E+00 -0.33392723069E+03  0.33518974566E+03  0.00000000000E+00 0. -1.
         -5    1    5    5    0  502 -0.20171231891E+02  0.95315411563E+01  0.30961435683E+02  0.38450349444E+02  0.47000000000E+01 0.  1.
         11    1    6    6    0    0  0.31268924767E+02 -0.43631165442E+02 -0.59959654004E+02  0.80477228843E+02  0.00000000000E+00 0. -1.
        -12    1    6    6    0    0  0.63519070322E+02 -0.68473243887E+02  0.15244917705E+02  0.94634375038E+02  0.00000000000E+00 0.  1.
</event>
<event>
12    1  0.8297444E-002  0.2038973E+03  0.7818608E-02  0.1146688E+00
         21   -1    0    0  503  502  0.00000000000E+00  0.00000000000E+00  0.19882629443E+03  0.19882629443E+03  0.00000000000E+00 0. -1.
         21   -1    0    0  501  503 -0.00000000000E+00 -0.00000000000E+00 -0.20820310024E+03  0.20820310024E+03  0.00000000000E+00 0. -1.
          6    2    1    2  501    0  0.24905607271E+02  0.10642461454E+03 -0.73876972098E+00  0.20294919911E+03  0.17100100521E+03 0.  0.
         24    2    3    3    0    0  0.11708465242E+02 -0.88017520838E+01 -0.20195933915E+02  0.85254885898E+02  0.81522762618E+02 0.  0.
         -6    2    1    2    0  502 -0.24905607271E+02 -0.10642461454E+03 -0.86380360829E+01  0.20408019556E+03  0.17212676346E+03 0.  0.
        -24    2    5    5    0    0  0.32324944078E+02 -0.11190735090E+03 -0.26848216423E+02  0.14358972463E+03  0.79555170159E+02 0.  0.
          5    1    3    3  501    0  0.13197142029E+02  0.11522636663E+03  0.19457164194E+02  0.11769431321E+03  0.47000000000E+01 0. -1.
        -11    1    4    4    0    0 -0.24310834240E+02 -0.30402963111E+02 -0.65878512527E+00  0.38933158428E+02  0.00000000000E+00 0.  1.
         12    1    4    4    0    0  0.36019299482E+02  0.21601211027E+02 -0.19537148789E+02  0.46321727470E+02  0.00000000000E+00 0. -1.
         -5    1    5    5    0  502 -0.57230551349E+02  0.54827363531E+01  0.18210180340E+02  0.60490470933E+02  0.47000000000E+01 0.  1.
         13    1    6    6    0    0  0.11240166355E+02 -0.69991770346E+02  0.23581916495E+02  0.74708072131E+02  0.00000000000E+00 0. -1.
        -14    1    6    6    0    0  0.21084777723E+02 -0.41915580549E+02 -0.50430132918E+02  0.68881652496E+02  0.00000000000E+00 0.  1.
</event>
<event>
12    1  0.8297444E-002  0.2530982E+03  0.7818608E-02  0.1111364E+00
         21   -1    0    0  501  502  0.00000000000E+00  0.00000000000E+00  0.10528696226E+04  0.10528696226E+04  0.00000000000E+00 0. -1.
         21   -1    0    0  502  503 -0.00000000000E+00 -0.00000000000E+00 -0.12776286395E+03  0.12776286395E+03  0.00000000000E+00 0. -1.
         -6    2    1    2    0  503 -0.17787753624E+03  0.51989048881E+02  0.35317634197E+02  0.25555045570E+03  0.17238161451E+03 0.  0.
        -24    2    3    3    0    0 -0.10825888082E+03 -0.24798102935E+02 -0.15929961916E+02  0.13982910946E+03  0.83447498356E+02 0.  0.
          6    2    1    2  501    0  0.17787753624E+03 -0.51989048881E+02  0.88978912442E+03  0.92508203081E+03  0.17236240513E+03 0.  0.
         24    2    5    5    0    0  0.84808806493E+02 -0.49429806075E+01  0.23331260689E+03  0.26035755477E+03  0.78321881187E+02 0.  0.
          5    1    5    5  501    0  0.93068729743E+02 -0.47046068274E+02  0.65647651752E+03  0.66472447605E+03  0.47000000000E+01 0. -1.
        -11    1    6    6    0    0  0.31816892118E+02  0.35100786223E+02  0.11999846554E+03  0.12901167215E+03  0.00000000000E+00 0.  1.
         12    1    6    6    0    0  0.52991914375E+02 -0.40043766831E+02  0.11331414135E+03  0.13134588262E+03  0.00000000000E+00 0. -1.
         -5    1    3    3    0  503 -0.69618655418E+02  0.76787151816E+02  0.51247596113E+02  0.11572134623E+03  0.47000000000E+01 0.  1.
         13    1    4    4    0    0 -0.52146562697E+02  0.20086547162E+02 -0.34421801539E+02  0.65632261877E+02  0.00000000000E+00 0. -1.
        -14    1    4    4    0    0 -0.56112318121E+02 -0.44884650097E+02  0.18491839623E+02  0.74196847587E+02  0.00000000000E+00 0.  1.
</event>
<event>
12    1  0.8297444E-002  0.2062755E+03  0.7818608E-02  0.1144838E+00
         21   -1    0    0  501  502  0.00000000000E+00  0.00000000000E+00  0.89815417207E+02  0.89815417207E+02  0.00000000000E+00 0. -1.
         21   -1    0    0  502  503 -0.00000000000E+00 -0.00000000000E+00 -0.10782277427E+04  0.10782277427E+04  0.00000000000E+00 0.  1.
         -6    2    1    2    0  503 -0.54631135555E+02  0.97324453372E+02 -0.93340604362E+03  0.95592699281E+03  0.17347323459E+03 0.  0.
        -24    2    3    3    0    0 -0.99466911450E+02  0.58955481953E+02 -0.52670091440E+03  0.54493602344E+03  0.78562084302E+02 0.  0.
          6    2    1    2  501    0  0.54631135555E+02 -0.97324453372E+02 -0.55006281907E+02  0.21211616713E+03  0.17178756391E+03 0.  0.
         24    2    5    5    0    0  0.54038022892E+01  0.10832503839E+02 -0.42840755944E+02  0.92569742026E+02  0.81162075813E+02 0.  0.
          5    1    5    5  501    0  0.49227333266E+02 -0.10815695721E+03 -0.12165525962E+02  0.11954642511E+03  0.47000000000E+01 0. -1.
        -11    1    6    6    0    0 -0.12516244793E+02 -0.16922154935E+02 -0.53793289175E+02  0.57764467206E+02  0.00000000000E+00 0.  1.
         12    1    6    6    0    0  0.17920047082E+02  0.27754658774E+02  0.10952533231E+02  0.34805274819E+02  0.00000000000E+00 0. -1.
         -5    1    3    3    0  503  0.44835775895E+02  0.38368971419E+02 -0.40670512922E+03  0.41099096937E+03  0.47000000000E+01 0.  1.
         11    1    4    4    0    0  0.45646726042E+01  0.29174124946E+02 -0.15573606038E+03  0.15851083970E+03  0.00000000000E+00 0. -1.
        -12    1    4    4    0    0 -0.10403158405E+03  0.29781357007E+02 -0.37096485403E+03  0.38642518374E+03  0.00000000000E+00 0.  1.
</event>
<event>
12    1  0.8297444E-002  0.2763288E+03  0.7818608E-02  0.1097749E+00
         21   -1    0    0  501  502  0.00000000000E+00  0.00000000000E+00  0.82448665643E+03  0.82448665643E+03  0.00000000000E+00 0.  1.
         21   -1    0    0  502  503 -0.00000000000E+00 -0.00000000000E+00 -0.13421991502E+03  0.13421991502E+03  0.00000000000E+00 0. -1.
         -6    2    1    2    0  503  0.15706854503E+03  0.14813429808E+03  0.77835172163E+02  0.28682113120E+03  0.17202833828E+03 0.  0.
        -24    2    3    3    0    0  0.17991784955E+03  0.15356644522E+03  0.57754352201E+02  0.25556527943E+03  0.77620623327E+02 0.  0.
          6    2    1    2  501    0 -0.15706854503E+03 -0.14813429808E+03  0.61243156924E+03  0.67188544024E+03  0.17246251679E+03 0.  0.
         24    2    5    5    0    0 -0.13972110402E+03 -0.50795355304E+02  0.30288055093E+03  0.34689355352E+03  0.80599964747E+02 0.  0.
          5    1    5    5  501    0 -0.17347441007E+02 -0.97338942780E+02  0.30955101832E+03  0.32499188672E+03  0.47000000000E+01 0. -1.
        -11    1    6    6    0    0 -0.14472184595E+03 -0.57221351309E+02  0.25816721210E+03  0.30144486253E+03  0.00000000000E+00 0.  1.
         12    1    6    6    0    0  0.50007419239E+01  0.64259960050E+01  0.44713338823E+02  0.45448690995E+02  0.00000000000E+00 0. -1.
         -5    1    3    3    0  503 -0.22849304523E+02 -0.54321471344E+01  0.20080819962E+02  0.31255851772E+02  0.47000000000E+01 0.  1.
         11    1    4    4    0    0  0.66931321130E+02  0.39658270712E+02 -0.15279110005E+02  0.79284496508E+02  0.00000000000E+00 0. -1.
        -12    1    4    4    0    0  0.11298652842E+03  0.11390817451E+03  0.73033462207E+02  0.17628078292E+03  0.00000000000E+00 0.  1.
</event>
<event>
12    1  0.8297444E-002  0.1889498E+03  0.7818608E-02  0.1160550E+00
         21   -1    0    0  503  502  0.00000000000E+00  0.00000000000E+00  0.98958973555E+03  0.98958973555E+03  0.00000000000E+00 0.  1.
         21   -1    0    0  501  503 -0.00000000000E+00 -0.00000000000E+00 -0.54091921686E+02  0.54091921686E+02  0.00000000000E+00 0.  1.
          6    2    1    2  501    0  0.63668344136E+02  0.25523638645E+02  0.15486135855E+03  0.24050340573E+03  0.17074757281E+03 0.  0.
         24    2    3    3    0    0 -0.22327854544E+02  0.46844974734E+02  0.89510390367E+02  0.13030910187E+03  0.79217215937E+02 0.  0.
         -6    2    1    2    0  502 -0.63668344136E+02 -0.25523638645E+02  0.78063645531E+03  0.80317825150E+03  0.17605940518E+03 0.  0.
        -24    2    5    5    0    0  0.11512845209E+01 -0.27103452370E+02  0.66585841046E+03  0.67126854887E+03  0.80610913189E+02 0.  0.
          5    1    3    3  501    0  0.85996198681E+02 -0.21321336089E+02  0.65350968186E+02  0.11019430386E+03  0.47000000000E+01 0. -1.
        -11    1    4    4    0    0 -0.10341820701E+02 -0.18296317889E+02  0.47322681688E+02  0.51779771203E+02  0.00000000000E+00 0.  1.
         12    1    4    4    0    0 -0.11986033843E+02  0.65141292623E+02  0.42187708679E+02  0.78529330670E+02  0.00000000000E+00 0. -1.
         -5    1    5    5    0  502 -0.64819628657E+02  0.15798137247E+01  0.11477804484E+03  0.13190970263E+03  0.47000000000E+01 0.  1.
         13    1    6    6    0    0  0.15647559074E+02 -0.60011039921E+01  0.26221939225E+02  0.31119920482E+02  0.00000000000E+00 0. -1.
        -14    1    6    6    0    0 -0.14496274553E+02 -0.21102348378E+02  0.63963647124E+03  0.64014862838E+03  0.00000000000E+00 0.  1.
</event>
<event>
12    1  0.8297444E-002  0.1866692E+03  0.7818608E-02  0.1161512E+00
         21   -1    0    0  503  502  0.00000000000E+00  0.00000000000E+00  0.50030811515E+03  0.50030811515E+03  0.00000000000E+00 0.  1.
         21   -1    0    0  501  503 -0.00000000000E+00 -0.00000000000E+00 -0.97211332307E+02  0.97211332307E+02  0.00000000000E+00 0. -1.
          6    2    1    2  501    0 -0.34483140356E+02  0.65104680530E+02  0.42386566059E+02  0.19137017267E+03  0.17145907853E+03 0.  0.
         24    2    3    3    0    0 -0.40043975888E+02  0.86833736538E+02 -0.18972440159E+02  0.12587137565E+03  0.79624317368E+02 0.  0.
         -6    2    1    2    0  502  0.34483140356E+02 -0.65104680530E+02  0.36071021679E+03  0.40614927479E+03  0.17151579089E+03 0.  0.
        -24    2    5    5    0    0  0.71109014929E+01  0.25126213480E+02  0.85194903160E+02  0.11490773974E+03  0.72551537578E+02 0.  0.
          5    1    3    3  501    0  0.55608355319E+01 -0.21729056008E+02  0.61359006218E+02  0.65498797018E+02  0.47000000000E+01 0. -1.
        -13    1    4    4    0    0 -0.32885367954E+02 -0.40198068128E+01 -0.21774528791E+01  0.33201620041E+02  0.00000000000E+00 0.  1.
         14    1    4    4    0    0 -0.71586079337E+01  0.90853543351E+02 -0.16794987280E+02  0.92669755609E+02  0.00000000000E+00 0. -1.
         -5    1    5    5    0  502  0.27372238863E+02 -0.90230894010E+02  0.27551531363E+03  0.29124153505E+03  0.47000000000E+01 0.  1.
         13    1    6    6    0    0  0.17365740975E+02  0.42972738768E+02  0.81839825392E+02  0.94053082124E+02  0.00000000000E+00 0. -1.
        -14    1    6    6    0    0 -0.10254839482E+02 -0.17846525288E+02  0.33550777681E+01  0.20854657621E+02  0.00000000000E+00 0.  1.
</event>
<event>
12    1  0.8297444E-002  0.2178321E+03  0.7818608E-02  0.1135818E+00
         21   -1    0    0  501  502  0.00000000000E+00  0.00000000000E+00  0.17283263537E+03  0.17283263537E+03  0.00000000000E+00 0.  1.
         21   -1    0    0  502  503 -0.00000000000E+00 -0.00000000000E+00 -0.34727549026E+03  0.34727549026E+03  0.00000000000E+00 0.  1.
         -6    2    1    2    0  503  0.83527410826E+02 -0.10294030116E+03 -0.20814777090E+03  0.30129106489E+03  0.17285044775E+03 0.  0.
        -24    2    3    3    0    0 -0.26268990566E+01  0.38896759124E+01 -0.92949831009E+02  0.12204859093E+03  0.78956679813E+02 0.  0.
          6    2    1    2  501    0 -0.83527410826E+02  0.10294030116E+03  0.33704916017E+02  0.21881706074E+03  0.17079622580E+03 0.  0.
         24    2    5    5    0    0 -0.65189890505E+02  0.62834935253E+02  0.87794466917E+02  0.14887083467E+03  0.79099343112E+02 0.  0.
          5    1    5    5  501    0 -0.18337520321E+02  0.40105365905E+02 -0.54089550900E+02  0.69946226077E+02  0.47000000000E+01 0. -1.
        -11    1    6    6    0    0  0.31962145519E+01  0.45775556750E+02  0.53516751818E+02  0.70495816247E+02  0.00000000000E+00 0.  1.
         12    1    6    6    0    0 -0.68386105057E+02  0.17059378503E+02  0.34277715099E+02  0.78375018419E+02  0.00000000000E+00 0. -1.
         -5    1    3    3    0  503  0.86154309883E+02 -0.10682997707E+03 -0.11519793990E+03  0.17924247395E+03  0.47000000000E+01 0.  1.
         13    1    4    4    0    0 -0.32231889355E+02  0.26101407494E+02 -0.41525407788E+02  0.58690183646E+02  0.00000000000E+00 0. -1.
        -14    1    4    4    0    0  0.29604990298E+02 -0.22211731581E+02 -0.51424423221E+02  0.63358407288E+02  0.00000000000E+00 0.  1.
</event>
<event>
12    1  0.8297444E-002  0.2494868E+03  0.7818608E-02  0.1113745E+00
         21   -1    0    0  501  502  0.00000000000E+00  0.00000000000E+00  0.33343988138E+03  0.33343988138E+03  0.00000000000E+00 0.  1.
         21   -1    0    0  502  503 -0.00000000000E+00 -0.00000000000E+00 -0.23751059117E+03  0.23751059117E+03  0.00000000000E+00 0.  1.
         -6    2    1    2    0  503  0.10081775078E+03  0.14973550965E+03 -0.84763438503E+02  0.26349291795E+03  0.17221711755E+03 0.  0.
        -24    2    3    3    0    0  0.10760753884E+03  0.48133162913E+02 -0.75280189915E+02  0.16111538091E+03  0.79967963500E+02 0.  0.
          6    2    1    2  501    0 -0.10081775078E+03 -0.14973550965E+03  0.18069272871E+03  0.30745755461E+03  0.17115882668E+03 0.  0.
         24    2    5    5    0    0 -0.28119411328E+02 -0.15238693895E+03  0.11050283482E+03  0.20626076690E+03  0.79499352225E+02 0.  0.
          5    1    5    5  501    0 -0.72698339455E+02  0.26514292974E+01  0.70189893893E+02  0.10119678770E+03  0.47000000000E+01 0. -1.
        -11    1    6    6    0    0 -0.55210584549E+02 -0.11878160245E+03  0.84131912383E+02  0.15567741136E+03  0.00000000000E+00 0.  1.
         12    1    6    6    0    0  0.27091173221E+02 -0.33605336504E+02  0.26370922434E+02  0.50583355544E+02  0.00000000000E+00 0. -1.
         -5    1    3    3    0  503 -0.67897880556E+01  0.10160234674E+03 -0.94832485887E+01  0.10237753703E+03  0.47000000000E+01 0.  1.
         13    1    4    4    0    0  0.34513036207E+02 -0.95735654856E+01 -0.55272126087E+02  0.65862058475E+02  0.00000000000E+00 0. -1.
        -14    1    4    4    0    0  0.73094502632E+02  0.57706728399E+02 -0.20008063828E+02  0.95253322439E+02  0.00000000000E+00 0.  1.
</event>
<event>
12    1  0.8297444E-002  0.2470891E+03  0.7818608E-02  0.1115684E+00
         21   -1    0    0  503  502  0.00000000000E+00  0.00000000000E+00  0.22956832050E+03  0.22956832050E+03  0.00000000000E+00 0. -1.
         21   -1    0    0  501  503 -0.00000000000E+00 -0.00000000000E+00 -0.26386732552E+03  0.26386732552E+03  0.00000000000E+00 0. -1.
          6    2    1    2  501    0 -0.16066210621E+02  0.17661054578E+03 -0.35283138410E+02  0.24959549124E+03  0.17205697135E+03 0.  0.
         24    2    3    3    0    0 -0.59564271594E+02  0.17742229944E+03 -0.29496688074E+02  0.20545578962E+03  0.79469818736E+02 0.  0.
         -6    2    1    2    0  502  0.16066210621E+02 -0.17661054578E+03  0.98413338895E+00  0.24384015478E+03  0.16735484624E+03 0.  0.
        -24    2    5    5    0    0 -0.22571307638E+02 -0.26662421430E+02 -0.13592463342E+02  0.88238532086E+02  0.79880753877E+02 0.  0.
          5    1    3    3  501    0  0.43498060973E+02 -0.81175365951E+00 -0.57864503365E+01  0.44139701629E+02  0.47000000000E+01 0. -1.
        -11    1    4    4    0    0 -0.17810176480E+02  0.10063411827E+03 -0.52751069533E+02  0.11500914521E+03  0.00000000000E+00 0.  1.
         12    1    4    4    0    0 -0.41754095114E+02  0.76788181173E+02  0.23254381459E+02  0.90446644403E+02  0.00000000000E+00 0. -1.
         -5    1    5    5    0  502  0.38637518258E+02 -0.14994812435E+03  0.14576596731E+02  0.15560162270E+03  0.47000000000E+01 0.  1.
         13    1    6    6    0    0 -0.41403818217E+02 -0.25659797490E+02 -0.34795562682E+02  0.59861778728E+02  0.00000000000E+00 0. -1.
        -14    1    6    6    0    0  0.18832510579E+02 -0.10026239401E+01  0.21203099340E+02  0.28376753357E+02  0.00000000000E+00 0.  1.
</event>
<event>
12    1  0.8297444E-002  0.2434617E+03  0.7818608E-02  0.1117741E+00
         21   -1    0    0  503  502  0.00000000000E+00  0.00000000000E+00  0.89580859218E+02  0.89580859218E+02  0.00000000000E+00 0. -1.
         21   -1    0    0  501  503 -0.00000000000E+00 -0.00000000000E+00 -0.12250764343E+04  0.12250764343E+04  0.00000000000E+00 0.  1.
          6    2    1    2  501    0 -0.16392707720E+03  0.53069096017E+02 -0.10159300339E+04  0.10446949060E+04  0.17200348030E+03 0.  0.
         24    2    3    3    0    0 -0.18922685785E+03  0.55901909794E+02 -0.82523901111E+03  0.85225462979E+03  0.79916839779E+02 0.  0.
         -6    2    1    2    0  502  0.16392707720E+03 -0.53069096017E+02 -0.11956554117E+03  0.26996238752E+03  0.16998634194E+03 0.  0.
        -24    2    5    5    0    0  0.68687873001E+01 -0.42464066825E+02 -0.14459660040E+02  0.80623777294E+02  0.66638836173E+02 0.  0.
          5    1    3    3  501    0  0.25299780647E+02 -0.28328137767E+01 -0.19069102283E+03  0.19244027625E+03  0.47000000000E+01 0. -1.
        -13    1    4    4    0    0 -0.48877607035E+02  0.53560964281E+02 -0.28286517150E+03  0.29201113439E+03  0.00000000000E+00 0.  1.
         14    1    4    4    0    0 -0.14034925082E+03  0.23409455134E+01 -0.54237383962E+03  0.56024349539E+03  0.00000000000E+00 0. -1.
         -5    1    5    5    0  502  0.15705828990E+03 -0.10605029192E+02 -0.10510588113E+03  0.18933861022E+03  0.47000000000E+01 0.  1.
         13    1    6    6    0    0 -0.76739728519E+01 -0.35754802793E+02  0.20676430442E+02  0.42009648390E+02  0.00000000000E+00 0. -1.
        -14    1    6    6    0    0  0.14542760152E+02 -0.67092640325E+01 -0.35136090481E+02  0.38614128904E+02  0.00000000000E+00 0.  1.
</event>
<event>
12    1  0.8297444E-002  0.2458759E+03  0.7818608E-02  0.1116449E+00
         21   -1    0    0  501  502  0.00000000000E+00  0.00000000000E+00  0.22158817440E+03  0.22158817440E+03  0.00000000000E+00 0.  1.
         21   -1    0    0  502  503 -0.00000000000E+00 -0.00000000000E+00 -0.50172875218E+03  0.50172875218E+03  0.00000000000E+00 0.  1.
         -6    2    1    2    0  503  0.13210591547E+03  0.11010291345E+03 -0.38667441884E+03  0.45822707329E+03  0.17572797175E+03 0.  0.
        -24    2    3    3    0    0  0.28974014054E+02  0.98787259840E+02 -0.27269458658E+03  0.30402679680E+03  0.86438066995E+02 0.  0.
          6    2    1    2  501    0 -0.13210591547E+03 -0.11010291345E+03  0.10653384105E+03  0.26508985329E+03  0.17131417506E+03 0.  0.
         24    2    5    5    0    0 -0.55017047187E+02 -0.73318394609E+02 -0.76143685891E+01  0.12244449513E+03  0.80822109042E+02 0.  0.
          5    1    5    5  501    0 -0.77088868283E+02 -0.36784518840E+02  0.11414820964E+03  0.14264535816E+03  0.47000000000E+01 0. -1.
        -11    1    6    6    0    0 -0.64779736854E+02 -0.73325289812E+02 -0.26341295038E+02  0.10132559527E+03  0.00000000000E+00 0.  1.
         12    1    6    6    0    0  0.97626896675E+01  0.68952031658E-02  0.18726926449E+02  0.21118899860E+02  0.00000000000E+00 0. -1.
         -5    1    3    3    0  503  0.10313190142E+03  0.11315653608E+02 -0.11397983225E+03  0.15420027648E+03  0.47000000000E+01 0.  1.
         13    1    4    4    0    0  0.78109417243E+01  0.62141057479E+02 -0.58532766598E+02  0.85724014143E+02  0.00000000000E+00 0. -1.
        -14    1    4    4    0    0  0.21163072330E+02  0.36646202361E+02 -0.21416181999E+03  0.21830278266E+03  0.00000000000E+00 0.  1.
</event>
<event>
12    1  0.8297444E-002  0.2968619E+03  0.7818608E-02  0.1086862E+00
         21   -1    0    0  503  502  0.00000000000E+00  0.00000000000E+00  0.16320136980E+03  0.16320136980E+03  0.00000000000E+00 0. -1.
         21   -1    0    0  501  503 -0.00000000000E+00 -0.00000000000E+00 -0.56632060778E+03  0.56632060778E+03  0.00000000000E+00 0. -1.
          6    2    1    2  501    0 -0.37635679723E+02  0.23871580296E+03 -0.28101062706E+03  0.40852738926E+03  0.17183124362E+03 0.  0.
         24    2    3    3    0    0  0.37884752542E+02  0.17042575250E+03 -0.20914339561E+03  0.28381229139E+03  0.79550394239E+02 0.  0.
         -6    2    1    2    0  502  0.37635679723E+02 -0.23871580296E+03 -0.12210861092E+03  0.32099458831E+03  0.17241036482E+03 0.  0.
        -24    2    5    5    0    0  0.31646543108E+02 -0.16792978105E+03 -0.10881927852E+02  0.18893401251E+03  0.79848166391E+02 0.  0.
          5    1    3    3  501    0 -0.75520432265E+02  0.68290050456E+02 -0.71867231449E+02  0.12471509787E+03  0.47000000000E+01 0. -1.
        -13    1    4    4    0    0  0.12387184907E+02  0.11347621171E+03 -0.18401581805E+03  0.21654587104E+03  0.00000000000E+00 0.  1.
         14    1    4    4    0    0  0.25497567636E+02  0.56949540793E+02 -0.25127577566E+02  0.67266420346E+02  0.00000000000E+00 0. -1.
         -5    1    5    5    0  502  0.59891366156E+01 -0.70786021905E+02 -0.11122668307E+03  0.13206057580E+03  0.47000000000E+01 0.  1.
         13    1    6    6    0    0 -0.19615842715E+02 -0.10596951504E+03  0.10543219834E+00  0.10776980337E+03  0.00000000000E+00 0. -1.
        -14    1    6    6    0    0  0.51262385823E+02 -0.61960266014E+02 -0.10987360050E+02  0.81164209142E+02  0.00000000000E+00 0.  1.
</event>
<event>
12    1  0.8297444E-002  0.2133079E+03  0.7818608E-02  0.1139458E+00
         21   -1    0    0  503  502  0.00000000000E+00  0.00000000000E+00  0.21009810211E+03  0.21009810211E+03  0.00000000000E+00 0.  1.
         21   -1    0    0  501  503 -0.00000000000E+00 -0.00000000000E+00 -0.23058530866E+03  0.23058530866E+03  0.00000000000E+00 0. -1.
          6    2    1    2  501    0  0.39513207283E+02  0.11559094948E+03 -0.69300524658E+02  0.22428287957E+03  0.17486476547E+03 0.  0.
         24    2    3    3    0    0  0.44407063856E+02 -0.11180270613E+02  0.16011480227E+02  0.71328244951E+02  0.52291158502E+02 0.  0.
         -6    2    1    2    0  502 -0.39513207283E+02 -0.11559094948E+03  0.48813318108E+02  0.21640053119E+03  0.17182516906E+03 0.  0.
        -24    2    5    5    0    0 -0.82986834642E+02 -0.11380115735E+03  0.57997246826E+02  0.17168370909E+03  0.79209198902E+02 0.  0.
          5    1    3    3  501    0 -0.48938565732E+01  0.12677122009E+03 -0.85312004885E+02  0.15295463462E+03  0.47000000000E+01 0. -1.
        -13    1    4    4    0    0  0.15454036435E+02 -0.29618589774E+02 -0.10343965520E+00  0.33408064926E+02  0.00000000000E+00 0.  1.
         14    1    4    4    0    0  0.28953027422E+02  0.18438319161E+02  0.16114919882E+02  0.37920180026E+02  0.00000000000E+00 0. -1.
         -5    1    5    5    0  502  0.43473627359E+02 -0.17897921294E+01 -0.91839287183E+01  0.44716822096E+02  0.47000000000E+01 0.  1.
         11    1    6    6    0    0  0.81086630143E+01 -0.27462182245E+02 -0.82013551749E+01  0.29785635737E+02  0.00000000000E+00 0. -1.
        -12    1    6    6    0    0 -0.91095497657E+02 -0.86338975101E+02  0.66198602001E+02  0.14189807335E+03  0.00000000000E+00 0.  1.
</event>
<event>
12    1  0.8297444E-002  0.1723894E+03  0.7818608E-02  0.1175494E+00
         21   -1    0    0  503  502  0.00000000000E+00  0.00000000000E+00  0.32282629248E+03  0.32282629248E+03  0.00000000000E+00 0. -1.
         21   -1    0    0  501  503 -0.00000000000E+00 -0.00000000000E+00 -0.16208419502E+03  0.16208419502E+03  0.00000000000E+00 0. -1.
          6    2    1    2  501    0  0.89241069571E+01  0.25921106588E+01 -0.79208111728E+02  0.18971562168E+03  0.17213870402E+03 0.  0.
         24    2    3    3    0    0 -0.33071679274E+02 -0.16994875860E+01  0.11245668530E+02  0.89785444855E+02  0.82694236915E+02 0.  0.
         -6    2    1    2    0  502 -0.89241069571E+01 -0.25921106588E+01  0.23995020919E+03  0.29519486583E+03  0.17169026529E+03 0.  0.
        -24    2    5    5    0    0 -0.21946270450E+02  0.62848972779E+01  0.33749920328E+02  0.88339778531E+02  0.78381889671E+02 0.  0.
          5    1    3    3  501    0  0.41995786232E+02  0.42915982447E+01 -0.90453780259E+02  0.99930176823E+02  0.47000000000E+01 0. -1.
        -11    1    4    4    0    0 -0.35197454122E+02 -0.37704178374E+02 -0.13065429146E+01  0.51596248874E+02  0.00000000000E+00 0.  1.
         12    1    4    4    0    0  0.21257748476E+01  0.36004690788E+02  0.12552211445E+02  0.38189195980E+02  0.00000000000E+00 0. -1.
         -5    1    5    5    0  502  0.13022163493E+02 -0.88770079367E+01  0.20620028887E+03  0.20685508730E+03  0.47000000000E+01 0.  1.
         11    1    6    6    0    0 -0.24191945647E+02  0.31611261456E+02  0.45393663262E+02  0.60374719456E+02  0.00000000000E+00 0. -1.
        -12    1    6    6    0    0  0.22456751975E+01 -0.25326364178E+02 -0.11643742934E+02  0.27965059075E+02  0.00000000000E+00 0.  1.
</event>
<event>
12    1  0.8297444E-002  0.2023958E+03  0.7818608E-02  0.1147841E+00
         21   -1    0    0  501  502  0.00000000000E+00  0.00000000000E+00  0.42419143040E+03  0.42419143040E+03  0.00000000000E+00 0. -1.
         21   -1    0    0  502  503 -0.00000000000E+00 -0.00000000000E+00 -0.17133671283E+03  0.17133671283E+03  0.00000000000E+00 0. -1.
         -6    2    1    2    0  503 -0.89712735824E+02 -0.58696605521E+02 -0.70504287642E+02  0.21432434125E+03  0.17166945624E+03 0.  0.
        -24    2    3    3    0    0 -0.80605206121E+02 -0.15565550013E+02  0.16723302028E+02  0.11647763744E+03  0.80919006370E+02 0.  0.
          6    2    1    2  501    0  0.89712735824E+02  0.58696605521E+02  0.32335900522E+03  0.38120380198E+03  0.17106029907E+03 0.  0.
         24    2    5    5    0    0 -0.18692633998E+02  0.13042099299E+02  0.10500397640E+03  0.13313714409E+03  0.78613950143E+02 0.  0.
          5    1    5    5  501    0  0.10840536982E+03  0.45654506222E+02  0.21835502882E+03  0.24806665789E+03  0.47000000000E+01 0. -1.
        -11    1    6    6    0    0  0.12891997041E+01 -0.14471595664E+02 -0.69696994349E+01  0.16114149905E+02  0.00000000000E+00 0.  1.
         12    1    6    6    0    0 -0.19981833702E+02  0.27513694963E+02  0.11197367583E+03  0.11702299418E+03  0.00000000000E+00 0. -1.
         -5    1    3    3    0  503 -0.91075297036E+01 -0.43131055508E+02 -0.87227589670E+02  0.97846703808E+02  0.47000000000E+01 0.  1.
         13    1    4    4    0    0 -0.37889901406E+02 -0.54946994986E+01 -0.32722608084E+02  0.50364724073E+02  0.00000000000E+00 0. -1.
        -14    1    4    4    0    0 -0.42715304715E+02 -0.10070850515E+02  0.49445910112E+02  0.66112913367E+02  0.00000000000E+00 0.  1.
</event>
<event>
12    1  0.8297444E-002  0.2311651E+03  0.7818608E-02  0.1125968E+00
         21   -1    0    0  501  502  0.00000000000E+00  0.00000000000E+00  0.29024039922E+03  0.29024039922E+03  0.00000000000E+00 0. -1.
         21   -1    0    0  502  503 -0.00000000000E+00 -0.00000000000E+00 -0.38135832181E+03  0.38135832181E+03  0.00000000000E+00 0.  1.
         -6    2    1    2    0  503 -0.15117801511E+03 -0.19575973026E+02 -0.28750082762E+03  0.36890923486E+03  0.17377941970E+03 0.  0.
        -24    2    3    3    0    0 -0.14312858963E+03  0.41469497628E+02 -0.20309089477E+03  0.26432209654E+03  0.80092114339E+02 0.  0.
          6    2    1    2  501    0  0.15117801511E+03  0.19575973026E+02  0.19638290502E+03  0.30268948618E+03  0.17267503781E+03 0.  0.
         24    2    5    5    0    0  0.22369924355E+01  0.93456638704E+01  0.66086077629E+02  0.10447888936E+03  0.80350003715E+02 0.  0.
          5    1    5    5  501    0  0.14894102268E+03  0.10230309155E+02  0.13029682739E+03  0.19821059682E+03  0.47000000000E+01 0. -1.
        -11    1    6    6    0    0 -0.88676705209E+01  0.26897991176E+02  0.76261048189E+02  0.81350384023E+02  0.00000000000E+00 0.  1.
         12    1    6    6    0    0  0.11104662956E+02 -0.17552327305E+02 -0.10174970560E+02  0.23128505336E+02  0.00000000000E+00 0. -1.
         -5    1    3    3    0  503 -0.80494254853E+01 -0.61045470654E+02 -0.84409932845E+02  0.10458713831E+03  0.47000000000E+01 0.  1.
         13    1    4    4    0    0 -0.29628866912E+02  0.45217032308E+02 -0.82888247432E+02  0.98959139687E+02  0.00000000000E+00 0. -1.
        -14    1    4    4    0    0 -0.11349972271E+03 -0.37475346799E+01 -0.12020264734E+03  0.16536295686E+03  0.00000000000E+00 0.  1.
</event>
<event>
12    1  0.8297444E-002  0.2352212E+03  0.7818608E-02  0.1123311E+00
         21   -1    0    0  503  502  0.00000000000E+00  0.00000000000E+00  0.85284371761E+03  0.85284371761E+03  0.00000000000E+00 0.  1.
         21   -1    0    0  501  503 -0.00000000000E+00 -0.00000000000E+00 -0.10715063746E+03  0.10715063746E+03  0.00000000000E+00 0.  1.
          6    2    1    2  501    0 -0.14221764121E+03 -0.67350202842E+02  0.70495905832E+02  0.24555790779E+03  0.17483451046E+03 0.  0.
         24    2    3    3    0    0 -0.16875611157E+03 -0.82826985923E+02  0.57891347824E+02  0.21202007682E+03  0.79133874127E+02 0.  0.
         -6    2    1    2    0  502  0.14221764121E+03  0.67350202842E+02  0.67519717431E+03  0.71443644728E+03  0.17252914453E+03 0.  0.
        -24    2    5    5    0    0  0.30110299389E+02  0.19535434968E+02  0.13706124737E+03  0.16265145837E+03  0.79883966051E+02 0.  0.
          5    1    3    3  501    0  0.26538470359E+02  0.15476783081E+02  0.12604558008E+02  0.33537830969E+02  0.47000000000E+01 0. -1.
        -13    1    4    4    0    0 -0.78636228568E+02 -0.15781214497E+02 -0.99175622899E+01  0.80814981384E+02  0.00000000000E+00 0.  1.
         14    1    4    4    0    0 -0.90119882999E+02 -0.67045771426E+02  0.67808910114E+02  0.13120509544E+03  0.00000000000E+00 0. -1.
         -5    1    5    5    0  502  0.11210734182E+03  0.47814767873E+02  0.53813592695E+03  0.55178498891E+03  0.47000000000E+01 0.  1.
         11    1    6    6    0    0 -0.27321292103E+02  0.30102419949E+01  0.36827528738E+02  0.45954123123E+02  0.00000000000E+00 0. -1.
        -12    1    6    6    0    0  0.57431591492E+02  0.16525192973E+02  0.10023371863E+03  0.11669733525E+03  0.00000000000E+00 0.  1.
</event>
<event>
12    1  0.8297444E-002  0.1998064E+03  0.7818608E-02  0.1150440E+00
         21   -1    0    0  501  502  0.00000000000E+00  0.00000000000E+00  0.42315738022E+03  0.42315738022E+03  0.00000000000E+00 0.  1.
         21   -1    0    0  502  503 -0.00000000000E+00 -0.00000000000E+00 -0.54677914506E+03  0.54677914506E+03  0.00000000000E+00 0.  1.
         -6    2    1    2    0  503  0.77840285893E+02  0.55871253661E+02 -0.50347136437E+03  0.54074157720E+03  0.17244515500E+03 0.  0.
        -24    2    3    3    0    0  0.66168933774E+02  0.18358062914E+02 -0.48611313547E+03  0.49753442443E+03  0.80741419017E+02 0.  0.
          6    2    1    2  501    0 -0.77840285893E+02 -0.55871253661E+02  0.37984959952E+03  0.42919494808E+03  0.17533361943E+03 0.  0.
         24    2    5    5    0    0 -0.27248240242E+02 -0.23535529343E+02  0.58095504045E+02  0.10185270805E+03  0.75514891302E+02 0.  0.
          5    1    5    5  501    0 -0.50592045651E+02 -0.32335724319E+02  0.32175409548E+03  0.32734224003E+03  0.47000000000E+01 0. -1.
        -13    1    6    6    0    0 -0.17491240910E+02  0.82758461620E+01  0.65043646586E+02  0.67860954160E+02  0.00000000000E+00 0.  1.
         14    1    6    6    0    0 -0.97569993317E+01 -0.31811375504E+02 -0.69481425417E+01  0.33991753886E+02  0.00000000000E+00 0. -1.
         -5    1    3    3    0  503  0.11671352119E+02  0.37513190747E+02 -0.17358228899E+02  0.43207152773E+02  0.47000000000E+01 0.  1.
         13    1    4    4    0    0  0.16017138930E+02  0.32500469085E+02 -0.76802096174E+02  0.84919910545E+02  0.00000000000E+00 0. -1.
        -14    1    4    4    0    0  0.50151794844E+02 -0.14142406171E+02 -0.40931103929E+03  0.41261451388E+03  0.00000000000E+00 0.  1.
</event>
<event>
12    1  0.8297444E-002  0.1896145E+03  0.7818608E-02  0.1158816E+00
         21   -1    0    0  503  502  0.00000000000E+00  0.00000000000E+00  0.41439944097E+03  0.41439944097E+03  0.00000000000E+00 0.  1.
         21   -1    0    0  501  503 -0.00000000000E+00 -0.00000000000E+00 -0.26885776192E+03  0.26885776192E+03  0.00000000000E+00 0.  1.
          6    2    1    2  501    0 -0.11081095393E+02 -0.76636781808E+02 -0.20839486064E+03  0.28172921095E+03  0.17305185164E+03 0.  0.
         24    2    3    3    0    0 -0.59389896824E+02 -0.27486547581E+02 -0.66266371266E+02  0.12370363291E+03  0.81416747000E+02 0.  0.
         -6    2    1    2    0  502  0.11081095393E+02  0.76636781808E+02  0.35393653969E+03  0.40152799195E+03  0.17308283330E+03 0.  0.
        -24    2    5    5    0    0 -0.15198768961E+02  0.11218144160E+03  0.30688192491E+03  0.33679561301E+03  0.80243944860E+02 0.  0.
          5    1    3    3  501    0  0.48308801431E+02 -0.49150234226E+02 -0.14212848938E+03  0.15802557803E+03  0.47000000000E+01 0. -1.
        -13    1    4    4    0    0 -0.32273906451E+02 -0.34183690642E+02 -0.79837241231E+02  0.92650498276E+02  0.00000000000E+00 0.  1.
         14    1    4    4    0    0 -0.27115990372E+02  0.66971430610E+01  0.13570869965E+02  0.31053134635E+02  0.00000000000E+00 0. -1.
         -5    1    5    5    0  502  0.26279864355E+02 -0.35544659794E+02  0.47054614781E+02  0.64732378935E+02  0.47000000000E+01 0.  1.
         13    1    6    6    0    0  0.15433503054E+02  0.10631650748E+03  0.23129863997E+03  0.25503029944E+03  0.00000000000E+00 0. -1.
        -14    1    6    6    0    0 -0.30632272015E+02  0.58649341260E+01  0.75583284940E+02  0.81765313572E+02  0.00000000000E+00 0.  1.
</event>
<event>
12    1  0.8297444E-002  0.1882995E+03  0.7818608E-02  0.1160518E+00
         21   -1    0    0  503  502  0.00000000000E+00  0.00000000000E+00  0.35096614080E+03  0.35096614080E+03  0.00000000000E+00 0.  1.
         21   -1    0    0  501  503 -0.00000000000E+00 -0.00000000000E+00 -0.10290540553E+03  0.10290540553E+03  0.00000000000E+00 0. -1.
          6    2    1    2  501    0  0.73114142667E+02  0.29887944439E+02  0.16399200026E+03  0.24969999056E+03  0.17093198079E+03 0.  0.
         24    2    3    3    0    0  0.16306548275E+02  0.73922054074E+02  0.86270610967E+02  0.14373391134E+03  0.86524247228E+02 0.  0.
         -6    2    1    2    0  502 -0.73114142667E+02 -0.29887944439E+02  0.84068735011E+02  0.20417155576E+03  0.16846217645E+03 0.  0.
        -24    2    5    5    0    0 -0.38080655972E+02 -0.39576646566E+02  0.11939799665E+03  0.15326514294E+03  0.78853504187E+02 0.  0.
          5    1    3    3  501    0  0.56807594392E+02 -0.44034109635E+02  0.77721389289E+02  0.10596607922E+03  0.47000000000E+01 0. -1.
        -13    1    4    4    0    0 -0.14032782963E+02  0.53538324911E+02  0.91373199770E+02  0.10682852086E+03  0.00000000000E+00 0.  1.
         14    1    4    4    0    0  0.30339331238E+02  0.20383729163E+02 -0.51025888033E+01  0.36905390488E+02  0.00000000000E+00 0. -1.
         -5    1    5    5    0  502 -0.35033486696E+02  0.96887021270E+01 -0.35329261638E+02  0.50906412827E+02  0.47000000000E+01 0.  1.
         13    1    6    6    0    0 -0.19543524948E+02 -0.13331035473E+02 -0.55100207369E+01  0.24290454971E+02  0.00000000000E+00 0. -1.
        -14    1    6    6    0    0 -0.18537131024E+02 -0.26245611093E+02  0.12490801739E+03  0.12897468797E+03  0.00000000000E+00 0.  1.
</event>
<event>
12    1  0.8297444E-002  0.1845963E+03  0.7818608E-02  0.1163660E+00
         21   -1    0    0  501  502  0.00000000000E+00  0.00000000000E+00  0.53775692788E+02  0.53775692788E+02  0.00000000000E+00 0.  1.
         21   -1    0    0  502  503 -0.00000000000E+00 -0.00000000000E+00 -0.10284111418E+04  0.10284111418E+04  0.00000000000E+00 0.  1.
         -6    2    1    2    0  503 -0.11562995396E+02 -0.62195975845E+02 -0.82318483507E+03  0.84341273010E+03  0.17236507281E+03 0.  0.
        -24    2    3    3    0    0 -0.49497105872E+02 -0.52006318579E+02 -0.29716323217E+03  0.31590572296E+03  0.79597855421E+02 0.  0.
          6    2    1    2  501    0  0.11562995396E+02  0.62195975845E+02 -0.15145061398E+03  0.23877410453E+03  0.17341782563E+03 0.  0.
         24    2    5    5    0    0 -0.24900410932E+02  0.63688544547E+02 -0.25186364818E+02  0.10725772388E+03  0.78699461171E+02 0.  0.
          5    1    5    5  501    0  0.36463406327E+02 -0.14925687018E+01 -0.12626424917E+03  0.13151638065E+03  0.47000000000E+01 0. -1.
        -11    1    6    6    0    0 -0.45848541748E+02  0.58383724818E+02 -0.36657900937E+02  0.82792208601E+02  0.00000000000E+00 0.  1.
         12    1    6    6    0    0  0.20948130816E+02  0.53048197294E+01  0.11471536119E+02  0.24465515281E+02  0.00000000000E+00 0. -1.
         -5    1    3    3    0  503  0.37934110477E+02 -0.10189657267E+02 -0.52602160291E+03  0.52750700713E+03  0.47000000000E+01 0.  1.
         11    1    4    4    0    0 -0.95952962776E+01 -0.58905155380E+02 -0.22874223044E+03  0.23639986258E+03  0.00000000000E+00 0. -1.
        -12    1    4    4    0    0 -0.39901809594E+02  0.68988368015E+01 -0.68421001728E+02  0.79505860385E+02  0.00000000000E+00 0.  1.
</event>
<event>
12    1  0.8297444E-002  0.1982305E+03  0.7818608E-02  0.1151242E+00
         21   -1    0    0  501  502  0.00000000000E+00  0.00000000000E+00  0.68497697142E+03  0.68497697142E+03  0.00000000000E+00 0. -1.
         21   -1    0    0  502  503 -0.00000000000E+00 -0.00000000000E+00 -0.79100215078E+02  0.79100215078E+02  0.00000000000E+00 0. -1.
         -6    2    1    2    0  503  0.84796401293E+02  0.49541628516E+02  0.10268239689E+03  0.22324652820E+03  0.17219330734E+03 0.  0.
        -24    2    3    3    0    0  0.12656445299E+02  0.75654599407E+02  0.18868524772E+02  0.10952355049E+03  0.75865557838E+02 0.  0.
          6    2    1    2  501    0 -0.84796401293E+02 -0.49541628516E+02  0.50319435945E+03  0.54083065830E+03  0.17218720900E+03 0.  0.
         24    2    5    5    0    0 -0.36555226708E+02 -0.59896599612E+01  0.10022597108E+03  0.13262777134E+03  0.78566658492E+02 0.  0.
          5    1    5    5  501    0 -0.48241174585E+02 -0.43551968554E+02  0.40296838838E+03  0.40820288696E+03  0.47000000000E+01 0. -1.
        -13    1    6    6    0    0 -0.26603554686E+02 -0.40073462468E+02  0.74897436848E+02  0.89012682032E+02  0.00000000000E+00 0.  1.
         14    1    6    6    0    0 -0.99516720221E+01  0.34083802506E+02  0.25328534229E+02  0.43615089310E+02  0.00000000000E+00 0. -1.
         -5    1    3    3    0  503  0.72139955994E+02 -0.26112970891E+02  0.83813872117E+02  0.11372297771E+03  0.47000000000E+01 0.  1.
         11    1    4    4    0    0  0.28110508520E+02  0.11863794186E+02 -0.16790627239E+02  0.34826361636E+02  0.00000000000E+00 0. -1.
        -12    1    4    4    0    0 -0.15454063220E+02  0.63790805221E+02  0.35659152010E+02  0.74697188855E+02  0.00000000000E+00 0.  1.
</event>
<event>
12    1  0.8297444E-002  0.1856708E+03  0.7818608E-02  0.1164408E+00
         21   -1    0    0  501  502  0.00000000000E+00  0.00000000000E+00  0.11795761015E+03  0.11795761015E+03  0.00000000000E+00 0.  1.
         21   -1    0    0  502  503 -0.00000000000E+00 -0.00000000000E+00 -0.71419709095E+03  0.71419709095E+03  0.00000000000E+00 0.  1.
         -6    2    1    2    0  503 -0.90232096708E+01 -0.39543163271E+02 -0.62009594823E+03  0.64495755098E+03  0.17264465668E+03 0.  0.
        -24    2    3    3    0    0  0.59830003999E+01  0.29169603393E+02 -0.19150677636E+03  0.21061045604E+03  0.82433347280E+02 0.  0.
          6    2    1    2  501    0  0.90232096708E+01  0.39543163271E+02  0.23856467431E+02  0.18719715013E+03  0.18118653897E+03 0.  0.
         24    2    5    5    0    0  0.63723033530E+02  0.58382986956E+02  0.42205545833E+02  0.12632196335E+03  0.81894640592E+02 0.  0.
          5    1    5    5  501    0 -0.54699823859E+02 -0.18839823685E+02 -0.18349078402E+02  0.60875186775E+02  0.47000000000E+01 0. -1.
        -13    1    6    6    0    0  0.14569465267E+02  0.42644690105E+02 -0.16649796917E+02  0.48042217369E+02  0.00000000000E+00 0.  1.
         14    1    6    6    0    0  0.49153568263E+02  0.15738296851E+02  0.58855342750E+02  0.78279745982E+02  0.00000000000E+00 0. -1.
         -5    1    3    3    0  503 -0.15006210071E+02 -0.68712766665E+02 -0.42858917186E+03  0.43434709494E+03  0.47000000000E+01 0.  1.
         11    1    4    4    0    0  0.30229225439E+01 -0.28702432882E+02 -0.77981521256E+02  0.83150979377E+02  0.00000000000E+00 0. -1.
        -12    1    4    4    0    0  0.29600778559E+01  0.57872036275E+02 -0.11352525511E+03  0.12745947666E+03  0.00000000000E+00 0.  1.
</event>
<event>
12    1  0.8297444E-002  0.1847350E+03  0.7818608E-02  0.1163317E+00
         21   -1    0    0  503  502  0.00000000000E+00  0.00000000000E+00  0.14789451660E+03  0.14789451660E+03  0.00000000000E+00 0.  1.
         21   -1    0    0  501  503 -0.00000000000E+00 -0.00000000000E+00 -0.32363865414E+03  0.32363865414E+03  0.00000000000E+00 0.  1.
          6    2    1    2  501    0 -0.33648437372E+02 -0.56386388762E+02 -0.21423420750E+03  0.28283102109E+03  0.17258461303E+03 0.  0.
         24    2    3    3    0    0 -0.86960991435E+02 -0.34432926506E+02 -0.16088562722E+03  0.20413957337E+03  0.83910308743E+02 0.  0.
         -6    2    1    2    0  502  0.33648437372E+02  0.56386388762E+02  0.38490069964E+02  0.18870214964E+03  0.17267128776E+03 0.  0.
        -24    2    5    5    0    0  0.28758478655E+02  0.32751758945E+02  0.92701847001E+02  0.12917472577E+03  0.78694024757E+02 0.  0.
          5    1    3    3  501    0  0.53312554064E+02 -0.21953462256E+02 -0.53348580284E+02  0.78691447719E+02  0.47000000000E+01 0. -1.
        -11    1    4    4    0    0 -0.68696251425E+02 -0.61889300013E+02 -0.11322160218E+03  0.14617999732E+03  0.00000000000E+00 0.  1.
         12    1    4    4    0    0 -0.18264740011E+02  0.27456373507E+02 -0.47664025039E+02  0.57959576057E+02  0.00000000000E+00 0. -1.
         -5    1    5    5    0  502  0.48899587165E+01  0.23634629817E+02 -0.54211777037E+02  0.59527423868E+02  0.47000000000E+01 0.  1.
         11    1    6    6    0    0 -0.27321492803E+02  0.99990025361E+01  0.24928292363E+02  0.38312710435E+02  0.00000000000E+00 0. -1.
        -12    1    6    6    0    0  0.56079971459E+02  0.22752756409E+02  0.67773554638E+02  0.90862015338E+02  0.00000000000E+00 0.  1.
</event>
<event>
12    1  0.8297444E-002  0.1987801E+03  0.7818608E-02  0.1150793E+00
         21   -1    0    0  501  502  0.00000000000E+00  0.00000000000E+00  0.66310488955E+03  0.66310488955E+03  0.00000000000E+00 0.  1.
         21   -1    0    0  502  503 -0.00000000000E+00 -0.00000000000E+00 -0.64815006671E+02  0.64815006671E+02  0.00000000000E+00 0.  1.
         -6    2    1    2    0  503 -0.84595610145E+02  0.51409331472E+02  0.40272124282E+03  0.44906398696E+03  0.17226354329E+03 0.  0.
        -24    2    3    3    0    0 -0.16083535161E+02  0.88329169883E+02  0.23731031695E+03  0.26619834425E+03  0.80527322038E+02 0.  0.
          6    2    1    2  501    0  0.84595610145E+02 -0.51409331472E+02  0.19556864006E+03  0.27885590926E+03  0.17237803960E+03 0.  0.
         24    2    5    5    0    0  0.72658949930E+02 -0.84710710342E+02  0.81633626252E+02  0.15946268055E+03  0.79429655044E+02 0.  0.
          5    1    5    5  501    0  0.11936660216E+02  0.33301378870E+02  0.11393501380E+03  0.11939322871E+03  0.47000000000E+01 0. -1.
        -13    1    6    6    0    0 -0.63093621594E+01 -0.37479169633E+01 -0.11032675139E+02  0.13250466148E+02  0.00000000000E+00 0.  1.
         14    1    6    6    0    0  0.78968312089E+02 -0.80962793379E+02  0.92666301391E+02  0.14621221440E+03  0.00000000000E+00 0. -1.
         -5    1    3    3    0  503 -0.68512074984E+02 -0.36919838411E+02  0.16541092587E+03  0.18286564271E+03  0.47000000000E+01 0.  1.
         11    1    4    4    0    0  0.17595945844E+02  0.85866704195E+01  0.81028961221E+01  0.21189741494E+02  0.00000000000E+00 0. -1.
        -12    1    4    4    0    0 -0.33679481004E+02  0.79742499464E+02  0.22920742083E+03  0.24500860276E+03  0.00000000000E+00 0.  1.
</event>
<event>
12    1  0.8297444E-002  0.2509011E+03  0.7818608E-02  0.1114761E+00
         21   -1    0    0  501  502  0.00000000000E+00  0.00000000000E+00  0.20256144324E+03  0.20256144324E+03  0.00000000000E+00 0. -1.
         21   -1    0    0  502  503 -0.00000000000E+00 -0.00000000000E+00 -0.32996461722E+03  0.32996461722E+03  0.00000000000E+00 0. -1.
         -6    2    1    2    0  503 -0.26154845749E+02  0.18195478987E+03  0.23843399277E+02  0.23956375467E+03  0.15175856928E+03 0.  0.
        -24    2    3    3    0    0  0.28477994859E+02  0.11357015879E+03 -0.16185454441E+02  0.14320191487E+03  0.80843319619E+02 0.  0.
          6    2    1    2  501    0  0.26154845749E+02 -0.18195478987E+03 -0.15124657326E+03  0.29296230579E+03  0.17076230607E+03 0.  0.
         24    2    5    5    0    0  0.27483153552E+02 -0.14314580755E+03 -0.34579250032E+02  0.16991249547E+03  0.80177837558E+02 0.  0.
          5    1    5    5  501    0 -0.13283078036E+01 -0.38808982324E+02 -0.11666732323E+03  0.12304981032E+03  0.47000000000E+01 0. -1.
        -11    1    6    6    0    0  0.19968491856E+02  0.26870874084E+01 -0.68171989198E+01  0.21270526718E+02  0.00000000000E+00 0.  1.
         12    1    6    6    0    0  0.75146616963E+01 -0.14583289496E+03 -0.27762051112E+02  0.14864196875E+03  0.00000000000E+00 0. -1.
         -5    1    3    3    0  503 -0.54632840608E+02  0.68384631078E+02  0.40028853718E+02  0.96361839805E+02  0.47000000000E+01 0.  1.
         13    1    4    4    0    0 -0.14608136878E+02  0.72901389185E+02 -0.33393207417E+02  0.81505315838E+02  0.00000000000E+00 0. -1.
        -14    1    4    4    0    0  0.43086131737E+02  0.40668769610E+02  0.17207752976E+02  0.61696599032E+02  0.00000000000E+00 0.  1.
</event>
<event>
12    1  0.8297444E-002  0.1786134E+03  0.7818608E-02  0.1171123E+00
         21   -1    0    0  503  502  0.00000000000E+00  0.00000000000E+00  0.11652965115E+04  0.11652965115E+04  0.00000000000E+00 0. -1.
         21   -1    0    0  501  503 -0.00000000000E+00 -0.00000000000E+00 -0.27384242352E+02  0.27384242352E+02  0.00000000000E+00 0. -1.
          6    2    1    2  501    0 -0.19545628922E+02 -0.43446679240E+02  0.70604303666E+03  0.72828533219E+03  0.17214270221E+03 0.  0.
         24    2    3    3    0    0 -0.56425716553E+02  0.16670557674E+02  0.51395347661E+03  0.52360335419E+03  0.80935328636E+02 0.  0.
         -6    2    1    2    0  502  0.19545628922E+02  0.43446679240E+02  0.43186923247E+03  0.46439542164E+03  0.16395861716E+03 0.  0.
        -24    2    5    5    0    0  0.27879338890E+02  0.76824217677E+02  0.20425956918E+03  0.23415259413E+03  0.80163880775E+02 0.  0.
          5    1    3    3  501    0  0.36880087631E+02 -0.60117236914E+02  0.19208956005E+03  0.20468197800E+03  0.47000000000E+01 0. -1.
        -13    1    4    4    0    0 -0.22466898379E+02  0.47614984374E+02  0.31854462610E+03  0.32286626810E+03  0.00000000000E+00 0.  1.
         14    1    4    4    0    0 -0.33958818174E+02 -0.30944426700E+02  0.19540885051E+03  0.20073708609E+03  0.00000000000E+00 0. -1.
         -5    1    5    5    0  502 -0.83337099678E+01 -0.33377538438E+02  0.22760966329E+03  0.23024282751E+03  0.47000000000E+01 0.  1.
         13    1    6    6    0    0  0.36194429137E+02  0.52198036866E+02  0.19725986423E+03  0.20723447056E+03  0.00000000000E+00 0. -1.
        -14    1    6    6    0    0 -0.83150902469E+01  0.24626180811E+02  0.69997049433E+01  0.26918123569E+02  0.00000000000E+00 0.  1.
</event>
<event>
12    1  0.8297444E-002  0.2356266E+03  0.7818608E-02  0.1124794E+00
         21   -1    0    0  501  502  0.00000000000E+00  0.00000000000E+00  0.23896363897E+03  0.23896363897E+03  0.00000000000E+00 0. -1.
         21   -1    0    0  502  503 -0.00000000000E+00 -0.00000000000E+00 -0.23318451361E+03  0.23318451361E+03  0.00000000000E+00 0.  1.
         -6    2    1    2    0  503  0.11609565314E+03 -0.10940663543E+03  0.56926316268E+02  0.23103423458E+03  0.15712478960E+03 0.  0.
        -24    2    3    3    0    0  0.68284484384E+02 -0.72366732329E+02  0.98116413911E+02  0.15770909275E+03  0.73113695717E+02 0.  0.
          6    2    1    2  501    0 -0.11609565314E+03  0.10940663543E+03 -0.51147190907E+02  0.24111391800E+03  0.17341243830E+03 0.  0.
         24    2    5    5    0    0 -0.96204488154E+02  0.12608675812E+03  0.73167644676E+01  0.17697337687E+03  0.78184825682E+02 0.  0.
          5    1    5    5  501    0 -0.19891164989E+02 -0.16680122683E+02 -0.58463955375E+02  0.64140541122E+02  0.47000000000E+01 0. -1.
        -11    1    6    6    0    0 -0.10737486076E+02 -0.35851550257E+01 -0.16339479327E+02  0.19877764675E+02  0.00000000000E+00 0.  1.
         12    1    6    6    0    0 -0.85467002078E+02  0.12967191314E+03  0.23656243794E+02  0.15709561220E+03  0.00000000000E+00 0. -1.
         -5    1    3    3    0  503  0.47811168759E+02 -0.37039903104E+02 -0.41190097643E+02  0.73325141827E+02  0.47000000000E+01 0.  1.
         13    1    4    4    0    0  0.22768780326E+02 -0.74193088676E+02  0.56357288884E+02  0.95912333801E+02  0.00000000000E+00 0. -1.
        -14    1    4    4    0    0  0.45515704058E+02  0.18263563474E+01  0.41759125027E+02  0.61796758948E+02  0.00000000000E+00 0.  1.
</event>
<event>
12    1  0.8297444E-002  0.1780885E+03  0.7818608E-02  0.1169822E+00
         21   -1    0    0  501  502  0.00000000000E+00  0.00000000000E+00  0.25070123950E+03  0.25070123950E+03  0.00000000000E+00 0. -1.
         21   -1    0    0  502  503 -0.00000000000E+00 -0.00000000000E+00 -0.12683708502E+03  0.12683708502E+03  0.00000000000E+00 0. -1.
         -6    2    1    2    0  503 -0.36232214603E+02 -0.21712679683E+02  0.76838643025E+02  0.19395800538E+03  0.17300669627E+03 0.  0.
        -24    2    3    3    0    0 -0.38508192316E+02  0.48294655444E+02  0.66966254736E+02  0.12306540282E+03  0.82736687626E+02 0.  0.
          6    2    1    2  501    0  0.36232214603E+02  0.21712679683E+02  0.47025511464E+02  0.18358031914E+03  0.17235463734E+03 0.  0.
         24    2    5    5    0    0  0.87377998793E+02  0.30706112462E+02  0.83099340402E+01  0.11863604296E+03  0.73672760706E+02 0.  0.
          5    1    5    5  501    0 -0.51145784190E+02 -0.89934327782E+01  0.38715577423E+02  0.64944276181E+02  0.47000000000E+01 0. -1.
        -11    1    6    6    0    0  0.22081937813E+02 -0.34625153779E+01  0.33915621679E+02  0.40618596531E+02  0.00000000000E+00 0.  1.
         12    1    6    6    0    0  0.65296060980E+02  0.34168627839E+02 -0.25605687639E+02  0.78017446429E+02  0.00000000000E+00 0. -1.
         -5    1    3    3    0  503  0.22759777126E+01 -0.70007335127E+02  0.98723882890E+01  0.70892602552E+02  0.47000000000E+01 0.  1.
         11    1    4    4    0    0 -0.95545683223E+01  0.29170032130E+02  0.80242297919E+02  0.85912786742E+02  0.00000000000E+00 0. -1.
        -12    1    4    4    0    0 -0.28953623993E+02  0.19124623313E+02 -0.13276043184E+02  0.37152616083E+02  0.00000000000E+00 0.  1.
</event>
<event>
12    1  0.8297444E-002  0.2111096E+03  0.7818608E-02  0.1140698E+00
         21   -1    0    0  501  502  0.00000000000E+00  0.00000000000E+00  0.15545000522E+04  0.15545000522E+04  0.00000000000E+00 0. -1.
         21   -1    0    0  502  503 -0.00000000000E+00 -0.00000000000E+00 -0.52743739786E+02  0.52743739786E+02  0.00000000000E+00 0. -1.
         -6    2    1    2    0  503  0.12136155274E+03 -0.11477874754E+02  0.20785070569E+03  0.29622931061E+03  0.17230647264E+03 0.  0.
        -24    2    3    3    0    0  0.13016681909E+03  0.15735440061E+02  0.94537886276E+02  0.17926785429E+03  0.77514816483E+02 0.  0.
          6    2    1    2  501    0 -0.12136155274E+03  0.11477874754E+02  0.12939056067E+04  0.13110144814E+04  0.17235684840E+03 0.  0.
         24    2    5    5    0    0 -0.45085919610E+02  0.57908957837E+02  0.47584237262E+03  0.48807866209E+03  0.80053914709E+02 0.  0.
          5    1    5    5  501    0 -0.76275633130E+02 -0.46431083083E+02  0.81806323411E+03  0.82293581931E+03  0.47000000000E+01 0. -1.
        -11    1    6    6    0    0 -0.32315926382E+02  0.24196661740E+02  0.41784286011E+03  0.41978858165E+03  0.00000000000E+00 0.  1.
         12    1    6    6    0    0 -0.12769993228E+02  0.33712296097E+02  0.57999512514E+02  0.68290080444E+02  0.00000000000E+00 0. -1.
         -5    1    3    3    0  503 -0.88052663531E+01 -0.27213314815E+02  0.11331281942E+03  0.11696145631E+03  0.47000000000E+01 0.  1.
         11    1    4    4    0    0  0.51974366707E+02  0.33249984054E+02  0.95037582525E+01  0.62427699422E+02  0.00000000000E+00 0. -1.
        -12    1    4    4    0    0  0.78192452386E+02 -0.17514543993E+02  0.85034128024E+02  0.11684015487E+03  0.00000000000E+00 0.  1.
</event>
<event>
12    1  0.8297444E-002  0.1788966E+03  0.7818608E-02  0.1168978E+00
         21   -1    0    0  501  502  0.00000000000E+00  0.00000000000E+00  0.13378154611E+03  0.13378154611E+03  0.00000000000E+00 0. -1.
         21   -1    0    0  502  503 -0.00000000000E+00 -0.00000000000E+00 -0.27268744091E+03  0.27268744091E+03  0.00000000000E+00 0. -1.
         -6    2    1    2    0  503 -0.43300665433E+02 -0.22543277912E+02  0.22629636290E+01  0.17891094485E+03  0.17210711251E+03 0.  0.
        -24    2    3    3    0    0 -0.24825387746E+02 -0.55949354196E+02 -0.50150419890E+02  0.11389898756E+03  0.81922430632E+02 0.  0.
          6    2    1    2  501    0  0.43300665433E+02  0.22543277912E+02 -0.14116885843E+03  0.22755804217E+03  0.17167081569E+03 0.  0.
         24    2    5    5    0    0  0.15414516951E+02  0.47818483871E+02 -0.20893193047E+02  0.10144381222E+03  0.85616042824E+02 0.  0.
          5    1    5    5  501    0  0.27886148482E+02 -0.25275205959E+02 -0.12027566538E+03  0.12611422996E+03  0.47000000000E+01 0. -1.
        -13    1    6    6    0    0 -0.61242848113E+01 -0.23654275619E+02 -0.78569312575E+01  0.25666378558E+02  0.00000000000E+00 0.  1.
         14    1    6    6    0    0  0.21538801763E+02  0.71472759490E+02 -0.13036261790E+02  0.75777433659E+02  0.00000000000E+00 0. -1.
         -5    1    3    3    0  503 -0.18475277687E+02  0.33406076284E+02  0.52413383519E+02  0.65011957286E+02  0.47000000000E+01 0.  1.
         11    1    4    4    0    0 -0.50199216824E+02 -0.23696326471E+02 -0.47008630568E+02  0.72741244187E+02  0.00000000000E+00 0. -1.
        -12    1    4    4    0    0  0.25373829078E+02 -0.32253027725E+02 -0.31417893221E+01  0.41157743374E+02  0.00000000000E+00 0.  1.
</event>
<event>
12    1  0.8297444E-002  0.1951893E+03  0.7818608E-02  0.1154135E+00
         21   -1    0    0  501  502  0.00000000000E+00  0.00000000000E+00  0.26735046188E+03  0.26735046188E+03  0.00000000000E+00 0.  1.
         21   -1    0    0  502  503 -0.00000000000E+00 -0.00000000000E+00 -0.14159630542E+03  0.14159630542E+03  0.00000000000E+00 0. -1.
         -6    2    1    2    0  503  0.39102681660E+02  0.84609210837E+02  0.63597263478E+02  0.20528876826E+03  0.17149672936E+03 0.  0.
        -24    2    3    3    0    0 -0.31806963946E+02  0.35128417004E+02 -0.19808920724E+01  0.96665054076E+02  0.84228974287E+02 0.  0.
          6    2    1    2  501    0 -0.39102681660E+02 -0.84609210837E+02  0.62156892985E+02  0.20365799904E+03  0.17007458056E+03 0.  0.
         24    2    5    5    0    0  0.30842575663E+02 -0.13480999028E+02  0.58905686176E+02  0.10373692076E+03  0.78475901126E+02 0.  0.
          5    1    5    5  501    0 -0.69945257323E+02 -0.71128211809E+02  0.32512068088E+01  0.99921078271E+02  0.47000000000E+01 0. -1.
        -11    1    6    6    0    0 -0.17251323783E+02 -0.28315849491E+02  0.12994519333E+02  0.35612540451E+02  0.00000000000E+00 0.  1.
         12    1    6    6    0    0  0.48093899446E+02  0.14834850463E+02  0.45911166844E+02  0.68124380314E+02  0.00000000000E+00 0. -1.
         -5    1    3    3    0  503  0.70909645606E+02  0.49480793833E+02  0.65578155550E+02  0.10862371419E+03  0.47000000000E+01 0.  1.
         11    1    4    4    0    0 -0.22456563101E+01  0.54594311824E+02  0.16040807951E+02  0.56946372804E+02  0.00000000000E+00 0. -1.
        -12    1    4    4    0    0 -0.29561307636E+02 -0.19465894819E+02 -0.18021700024E+02  0.39718681273E+02  0.00000000000E+00 0.  1.
</event>
<event>
12    1  0.8297444E-002  0.1749943E+03  0.7818608E-02  0.1173366E+00
         21   -1    0    0  501  502  0.00000000000E+00  0.00000000000E+00  0.42691244947E+03  0.42691244947E+03  0.00000000000E+00 0. -1.
         21   -1    0    0  502  503 -0.00000000000E+00 -0.00000000000E+00 -0.93145008044E+02  0.93145008044E+02  0.00000000000E+00 0. -1.
         -6    2    1    2    0  503 -0.17481907907E+02  0.14718967854E+02  0.38383350050E+02  0.17672850852E+03  0.17098952905E+03 0.  0.
        -24    2    3    3    0    0 -0.34939043812E+02  0.33381868354E+02  0.83217641092E+02  0.12490902278E+03  0.79636689201E+02 0.  0.
          6    2    1    2  501    0  0.17481907907E+02 -0.14718967854E+02  0.29538409138E+03  0.34332894899E+03  0.17349565026E+03 0.  0.
         24    2    5    5    0    0 -0.46230909344E+02 -0.38446586363E+01  0.24187384978E+03  0.25928723531E+03  0.81085342750E+02 0.  0.
          5    1    5    5  501    0  0.63712817251E+02 -0.10874309217E+02  0.53510241601E+02  0.84041713685E+02  0.47000000000E+01 0. -1.
        -13    1    6    6    0    0 -0.60441676069E+02 -0.25543312110E+02  0.19460055815E+03  0.20536561113E+03  0.00000000000E+00 0.  1.
         14    1    6    6    0    0  0.14210766725E+02  0.21698653474E+02  0.47273291625E+02  0.53921624183E+02  0.00000000000E+00 0. -1.
         -5    1    3    3    0  503  0.17457135905E+02 -0.18662900500E+02 -0.44834291041E+02  0.51819485739E+02  0.47000000000E+01 0.  1.
         13    1    4    4    0    0 -0.34341598129E+02 -0.36850924018E+01  0.81165672360E+00  0.34548285843E+02  0.00000000000E+00 0. -1.
        -14    1    4    4    0    0 -0.59744568282E+00  0.37066960755E+02  0.82405984368E+02  0.90360736942E+02  0.00000000000E+00 0.  1.
</event>
<event>
12    1  0.8297444E-002  0.1777588E+03  0.7818608E-02  0.1170243E+00
         21   -1    0    0  501  502  0.00000000000E+00  0.00000000000E+00  0.70647451477E+02  0.70647451477E+02  0.00000000000E+00 0.  1.
         21   -1    0    0  502  503 -0.00000000000E+00 -0.00000000000E+00 -0.52333703487E+03  0.52333703487E+03  0.00000000000E+00 0.  1.
         -6    2    1    2    0  503 -0.40739993518E+02 -0.31823530691E+01 -0.34203628370E+03  0.38546983490E+03  0.17299797632E+03 0.  0.
        -24    2    3    3    0    0 -0.42185912315E+01 -0.61922188636E+02 -0.16447108651E+03  0.19485065864E+03  0.84046932817E+02 0.  0.
          6    2    1    2  501    0  0.40739993518E+02  0.31823530691E+01 -0.11065329970E+03  0.20851465145E+03  0.17194281809E+03 0.  0.
         24    2    5    5    0    0  0.26884424637E+02 -0.56800407396E+02 -0.10898871986E+03  0.14675083382E+03  0.75552680980E+02 0.  0.
          5    1    5    5  501    0  0.13855568881E+02  0.59982760465E+02 -0.16645798434E+01  0.61763817629E+02  0.47000000000E+01 0. -1.
        -11    1    6    6    0    0 -0.11489427839E+02 -0.40464869972E+02 -0.16301531056E+02  0.45112665281E+02  0.00000000000E+00 0.  1.
         12    1    6    6    0    0  0.38373852476E+02 -0.16335537424E+02 -0.92687188802E+02  0.10163816854E+03  0.00000000000E+00 0. -1.
         -5    1    3    3    0  503 -0.36521402286E+02  0.58739835567E+02 -0.17756519719E+03  0.19061917626E+03  0.47000000000E+01 0.  1.
         11    1    4    4    0    0 -0.13330491056E+02  0.81558652629E+01  0.22973090130E+00  0.15629232427E+02  0.00000000000E+00 0. -1.
        -12    1    4    4    0    0  0.91118998240E+01 -0.70078053899E+02 -0.16470081741E+03  0.17922142621E+03  0.00000000000E+00 0.  1.
</event>
<event>
12    1  0.8297444E-002  0.1858452E+03  0.7818608E-02  0.1162449E+00
         21   -1    0    0  501  502  0.00000000000E+00  0.00000000000E+00  0.14110950213E+03  0.14110950213E+03  0.00000000000E+00 0. -1.
         21   -1    0    0  502  503 -0.00000000000E+00 -0.00000000000E+00 -0.25664903118E+03  0.25664903118E+03  0.00000000000E+00 0. -1.
         -6    2    1    2    0  503 -0.14351918793E+02 -0.67937942542E+02 -0.10230362842E+03  0.21144259587E+03  0.17152375156E+03 0.  0.
        -24    2    3    3    0    0  0.43166115899E+02 -0.36393831827E+02 -0.10100397147E+02  0.98186774413E+02  0.79691907307E+02 0.  0.
          6    2    1    2  501    0  0.14351918793E+02  0.67937942542E+02 -0.13235900634E+02  0.18631593744E+03  0.17238589812E+03 0.  0.
         24    2    5    5    0    0  0.24775076683E+02  0.69425265622E+02  0.51680961672E+02  0.12038306732E+03  0.79921769046E+02 0.  0.
          5    1    5    5  501    0 -0.10423157890E+02 -0.14873230804E+01 -0.64916862306E+02  0.65932870118E+02  0.47000000000E+01 0. -1.
        -13    1    6    6    0    0 -0.19607727700E+02  0.26195350243E+01 -0.70211985792E+01  0.20991002329E+02  0.00000000000E+00 0.  1.
         14    1    6    6    0    0  0.44382804383E+02  0.66805730598E+02  0.58702160251E+02  0.99392064994E+02  0.00000000000E+00 0. -1.
         -5    1    3    3    0  503 -0.57518034692E+02 -0.31544110715E+02 -0.92203231276E+02  0.11325582146E+03  0.47000000000E+01 0.  1.
         13    1    4    4    0    0 -0.22157699007E+02 -0.18747853634E+02 -0.94295798862E+01  0.30518234189E+02  0.00000000000E+00 0. -1.
        -14    1    4    4    0    0  0.65323814906E+02 -0.17645978193E+02 -0.67081726132E+00  0.67668540224E+02  0.00000000000E+00 0.  1.
</event>
<event>
12    1  0.8297444E-002  0.1922698E+03  0.7818608E-02  0.1156629E+00
         21   -1    0    0  503  502  0.00000000000E+00  0.00000000000E+00  0.67156486201E+02  0.67156486201E+02  0.00000000000E+00 0.  1.
         21   -1    0    0  501  503 -0.00000000000E+00 -0.00000000000E+00 -0.72106213567E+03  0.72106213567E+03  0.00000000000E+00 0. -1.
          6    2    1    2  501    0  0.70141156961E+02 -0.50030066597E+02 -0.51949793088E+03  0.55362725598E+03  0.17088665517E+03 0.  0.
         24    2    3    3    0    0  0.86556399113E+02 -0.29547387064E+02 -0.51171128330E+03  0.52584736728E+03  0.79384872051E+02 0.  0.
         -6    2    1    2    0  502 -0.70141156961E+02  0.50030066597E+02 -0.13440771860E+03  0.23459136589E+03  0.17188625504E+03 0.  0.
        -24    2    5    5    0    0 -0.86758425004E+02  0.89347135670E+02 -0.11276255524E+03  0.18650219233E+03  0.80979867356E+02 0.  0.
          5    1    3    3  501    0 -0.16415242152E+02 -0.20482679534E+02 -0.77866475815E+01  0.27779888703E+02  0.47000000000E+01 0. -1.
        -11    1    4    4    0    0  0.10431850047E+02  0.11143736614E+02 -0.14019117466E+02  0.20725395428E+02  0.00000000000E+00 0.  1.
         12    1    4    4    0    0  0.76124549066E+02 -0.40691123677E+02 -0.49769216583E+03  0.50512197185E+03  0.00000000000E+00 0. -1.
         -5    1    5    5    0  502  0.16617268044E+02 -0.39317069073E+02 -0.21645163359E+02  0.48089173569E+02  0.47000000000E+01 0.  1.
         11    1    6    6    0    0 -0.64413768329E+02  0.29490672603E+02 -0.98004785328E+02  0.12092878594E+03  0.00000000000E+00 0. -1.
        -12    1    6    6    0    0 -0.22344656676E+02  0.59856463067E+02 -0.14757769910E+02  0.65573406389E+02  0.00000000000E+00 0.  1.
</event>
<event>
12    1  0.8297444E-002  0.1794200E+03  0.7818608E-02  0.1168535E+00
         21   -1    0    0  501  502  0.00000000000E+00  0.00000000000E+00  0.59515066158E+03  0.59515066158E+03  0.00000000000E+00 0. -1.
         21   -1    0    0  502  503 -0.00000000000E+00 -0.00000000000E+00 -0.34882241184E+03  0.34882241184E+03  0.00000000000E+00 0. -1.
         -6    2    1    2    0  503 -0.25095857645E+02 -0.33640876637E+02 -0.31080504055E+03  0.35887508090E+03  0.17444208154E+03 0.  0.
        -24    2    3    3    0    0 -0.44952074815E+02 -0.37018480808E+02 -0.79345141918E+02  0.12649295542E+03  0.79459167338E+02 0.  0.
          6    2    1    2  501    0  0.25095857645E+02  0.33640876637E+02  0.55713329028E+03  0.58509799252E+03  0.17372578121E+03 0.  0.
         24    2    5    5    0    0 -0.41687349371E+02 -0.69576938065E+00  0.41035040760E+03  0.42015464877E+03  0.80025949981E+02 0.  0.
          5    1    5    5  501    0  0.66783207017E+02  0.34336646017E+02  0.14678288268E+03  0.16494334375E+03  0.47000000000E+01 0. -1.
        -11    1    6    6    0    0 -0.16016325789E+01 -0.19032228105E+02  0.21276426891E+02  0.28591559503E+02  0.00000000000E+00 0.  1.
         12    1    6    6    0    0 -0.40085716793E+02  0.18336458724E+02  0.38907398071E+03  0.39156308926E+03  0.00000000000E+00 0. -1.
         -5    1    3    3    0  503  0.19856217169E+02  0.33776041708E+01 -0.23145989863E+03  0.23238212548E+03  0.47000000000E+01 0.  1.
         13    1    4    4    0    0  0.58373613971E+01  0.20688650845E+02 -0.14593899998E+02  0.25982243533E+02  0.00000000000E+00 0. -1.
        -14    1    4    4    0    0 -0.50789436212E+02 -0.57707131653E+02 -0.64751241921E+02  0.10051071189E+03  0.00000000000E+00 0.  1.
</event>
<event>
12    1  0.8297444E-002  0.2002171E+03  0.7818608E-02  0.1149654E+00
         21   -1    0    0  501  502  0.00000000000E+00  0.00000000000E+00  0.10012600409E+04  0.10012600409E+04  0.00000000000E+00 0. -1.
         21   -1    0    0  502  503 -0.00000000000E+00 -0.00000000000E+00 -0.39945271954E+02  0.39945271954E+02  0.00000000000E+00 0. -1.
         -6    2    1    2    0  503 -0.99437287422E+02  0.20863830204E+02  0.47766651658E+03  0.51793067846E+03  0.17252192059E+03 0.  0.
        -24    2    3    3    0    0 -0.71531115168E+02  0.69571853327E+02  0.41426024797E+03  0.43311516770E+03  0.77590284377E+02 0.  0.
          6    2    1    2  501    0  0.99437287422E+02 -0.20863830204E+02  0.48364825236E+03  0.52327463439E+03  0.17198150321E+03 0.  0.
         24    2    5    5    0    0  0.52327961919E+01  0.28180944617E+02  0.29324400687E+03  0.30520184194E+03  0.79590005435E+02 0.  0.
          5    1    5    5  501    0  0.94204491230E+02 -0.49044774821E+02  0.19040424549E+03  0.21807279245E+03  0.47000000000E+01 0. -1.
        -11    1    6    6    0    0 -0.22880849920E+02 -0.17447686664E+02  0.13797556212E+03  0.14094399883E+03  0.00000000000E+00 0.  1.
         12    1    6    6    0    0  0.28113646111E+02  0.45628631281E+02  0.15526844475E+03  0.16425784311E+03  0.00000000000E+00 0. -1.
         -5    1    3    3    0  503 -0.27906172254E+02 -0.48708023122E+02  0.63406268610E+02  0.84815510759E+02  0.47000000000E+01 0.  1.
         11    1    4    4    0    0 -0.85206220229E+02  0.42996486819E+02  0.33771734894E+03  0.35094416311E+03  0.00000000000E+00 0. -1.
        -12    1    4    4    0    0  0.13675105061E+02  0.26575366508E+02  0.76542899027E+02  0.82171004587E+02  0.00000000000E+00 0.  1.
</event>
<event>
12    1  0.8297444E-002  0.5374125E+03  0.7818608E-02  0.1004459E+00
         21   -1    0    0  503  502  0.00000000000E+00  0.00000000000E+00  0.36469470755E+03  0.36469470755E+03  0.00000000000E+00 0.  1.
         21   -1    0    0  501  503 -0.00000000000E+00 -0.00000000000E+00 -0.80035348378E+03  0.80035348378E+03  0.00000000000E+00 0.  1.
          6    2    1    2  501    0 -0.50781922285E+03  0.42592086896E+02 -0.27842735292E+03  0.60525532189E+03  0.17063928287E+03 0.  0.
         24    2    3    3    0    0 -0.46142250932E+03  0.15960876820E+02 -0.19993751655E+03  0.51015211064E+03  0.84348584863E+02 0.  0.
         -6    2    1    2    0  502  0.50781922285E+03 -0.42592086896E+02 -0.15723142330E+03  0.55979286944E+03  0.17015254108E+03 0.  0.
        -24    2    5    5    0    0  0.23055716331E+03 -0.54364671570E+02 -0.28245806012E+02  0.25373368745E+03  0.86433995176E+02 0.  0.
          5    1    3    3  501    0 -0.46396713528E+02  0.26631210077E+02 -0.78489836373E+02  0.95103211251E+02  0.47000000000E+01 0. -1.
        -13    1    4    4    0    0 -0.23121996551E+03  0.49445087217E+02 -0.92172606965E+02  0.25377801043E+03  0.00000000000E+00 0.  1.
         14    1    4    4    0    0 -0.23020254381E+03 -0.33484210397E+02 -0.10776490958E+03  0.25637410021E+03  0.00000000000E+00 0. -1.
         -5    1    5    5    0  502  0.27726205954E+03  0.11772584674E+02 -0.12898561729E+03  0.30605918199E+03  0.47000000000E+01 0.  1.
         13    1    6    6    0    0  0.15466763245E+02  0.78992274958E+00 -0.27640565292E+02  0.31683522419E+02  0.00000000000E+00 0. -1.
        -14    1    6    6    0    0  0.21509040006E+03 -0.55154594320E+02 -0.60524071978E+00  0.22205016503E+03  0.00000000000E+00 0.  1.
</event>
<event>
12    1  0.8297444E-002  0.2433413E+03  0.7818608E-02  0.1117918E+00
         21   -1    0    0  503  502  0.00000000000E+00  0.00000000000E+00  0.84823041068E+03  0.84823041068E+03  0.00000000000E+00 0.  1.
         21   -1    0    0  501  503 -0.00000000000E+00 -0.00000000000E+00 -0.71473057937E+02  0.71473057937E+02  0.00000000000E+00 0. -1.
          6    2    1    2  501    0 -0.16417187391E+03 -0.46553966334E+02  0.30541357746E+03  0.38925086918E+03  0.17064322400E+03 0.  0.
         24    2    3    3    0    0 -0.38457907469E+02 -0.15748225321E+02  0.20804377401E+03  0.22721394851E+03  0.81344632548E+02 0.  0.
         -6    2    1    2    0  502  0.16417187391E+03  0.46553966334E+02  0.47134377529E+03  0.53045259944E+03  0.17348005588E+03 0.  0.
        -24    2    5    5    0    0  0.42476636767E+02  0.21042632236E+02  0.33277473680E+03  0.34421611714E+03  0.74152901558E+02 0.  0.
          5    1    3    3  501    0 -0.12571396644E+03 -0.30805741013E+02  0.97369803445E+02  0.16203692067E+03  0.47000000000E+01 0. -1.
        -13    1    4    4    0    0 -0.57275622417E+02 -0.15650481385E+02  0.90935579819E+02  0.10860347217E+03  0.00000000000E+00 0.  1.
         14    1    4    4    0    0  0.18817714948E+02 -0.97743936316E-01  0.11710819419E+03  0.11861047634E+03  0.00000000000E+00 0. -1.
         -5    1    5    5    0  502  0.12169523714E+03  0.25511334099E+02  0.13856903849E+03  0.18623648230E+03  0.47000000000E+01 0.  1.
         13    1    6    6    0    0  0.72436656937E+01 -0.44170650073E+00 -0.14943726567E+01  0.74093823597E+01  0.00000000000E+00 0. -1.
        -14    1    6    6    0    0  0.35232971073E+02  0.21484338737E+02  0.33426910945E+03  0.33680673478E+03  0.00000000000E+00 0.  1.
</event>
<event>
12    1  0.8297444E-002  0.1818535E+03  0.7818608E-02  0.1166221E+00
         21   -1    0    0  503  502  0.00000000000E+00  0.00000000000E+00  0.30896632869E+03  0.30896632869E+03  0.00000000000E+00 0. -1.
         21   -1    0    0  501  503 -0.00000000000E+00 -0.00000000000E+00 -0.15688045291E+03  0.15688045291E+03  0.00000000000E+00 0.  1.
          6    2    1    2  501    0 -0.40339204661E+02 -0.42922664975E+02 -0.55773137576E+02  0.19021390144E+03  0.17204964058E+03 0.  0.
         24    2    3    3    0    0 -0.47840850230E+02 -0.43396050657E+02 -0.10189537286E+03  0.14324743077E+03  0.77234676460E+02 0.  0.
         -6    2    1    2    0  502  0.40339204661E+02  0.42922664975E+02  0.20785901335E+03  0.27563288017E+03  0.17116807119E+03 0.  0.
        -24    2    5    5    0    0  0.34077043036E+00  0.86062629229E+02  0.16657319059E+03  0.20360829813E+03  0.79390295177E+02 0.  0.
          5    1    3    3  501    0  0.75016455689E+01  0.47338568193E+00  0.46122235281E+02  0.46966470674E+02  0.47000000000E+01 0. -1.
        -11    1    4    4    0    0 -0.48350872525E+02 -0.16670434058E+02 -0.16459134817E+02  0.53727212514E+02  0.00000000000E+00 0.  1.
         12    1    4    4    0    0  0.51002229519E+00 -0.26725616600E+02 -0.85436238040E+02  0.89520218251E+02  0.00000000000E+00 0. -1.
         -5    1    5    5    0  502  0.39998434231E+02 -0.43139964254E+02  0.41285822762E+02  0.72024582039E+02  0.47000000000E+01 0.  1.
         13    1    6    6    0    0  0.31266902865E+02  0.39620232647E+02  0.37150277815E+02  0.62669970412E+02  0.00000000000E+00 0. -1.
        -14    1    6    6    0    0 -0.30926132434E+02  0.46442396582E+02  0.12942291278E+03  0.14093832772E+03  0.00000000000E+00 0.  1.
</event>
<event>
12    1  0.8297444E-002  0.2090732E+03  0.7818608E-02  0.1142372E+00
         21   -1    0    0  501  502  0.00000000000E+00  0.00000000000E+00  0.17220266131E+03  0.17220266131E+03  0.00000000000E+00 0. -1.
         21   -1    0    0  502  503 -0.00000000000E+00 -0.00000000000E+00 -0.29591456032E+03  0.29591456032E+03  0.00000000000E+00 0.  1.
         -6    2    1    2    0  503 -0.11379261384E+03  0.32689753478E+02 -0.15051769342E+03  0.25733261847E+03  0.17189276178E+03 0.  0.
        -24    2    3    3    0    0 -0.26982430520E+02  0.74740510327E+02 -0.86398570943E+02  0.14141184403E+03  0.78856839470E+02 0.  0.
          6    2    1    2  501    0  0.11379261384E+03 -0.32689753478E+02  0.26805794408E+02  0.21078460316E+03  0.17232010727E+03 0.  0.
         24    2    5    5    0    0  0.59315655887E+02  0.43442818483E+00 -0.49312105922E+02  0.11138150910E+03  0.80346879332E+02 0.  0.
          5    1    5    5  501    0  0.54476957951E+02 -0.33124181663E+02  0.76117900330E+02  0.99403094062E+02  0.47000000000E+01 0. -1.
        -13    1    6    6    0    0 -0.13259492751E+01  0.27101633048E+02 -0.33799228100E+02  0.43343332538E+02  0.00000000000E+00 0.  1.
         14    1    6    6    0    0  0.60641605162E+02 -0.26667204863E+02 -0.15512877822E+02  0.68038176564E+02  0.00000000000E+00 0. -1.
         -5    1    3    3    0  503 -0.86810183318E+02 -0.42050756848E+02 -0.64119122474E+02  0.11592077444E+03  0.47000000000E+01 0.  1.
         13    1    4    4    0    0 -0.52553969378E+02  0.30550053974E+02 -0.49999417251E+02  0.78709384578E+02  0.00000000000E+00 0. -1.
        -14    1    4    4    0    0  0.25571538858E+02  0.44190456353E+02 -0.36399153692E+02  0.62702459455E+02  0.00000000000E+00 0.  1.
</event>
<event>
12    1  0.8297444E-002  0.2047353E+03  0.7818608E-02  0.1145829E+00
         21   -1    0    0  503  502  0.00000000000E+00  0.00000000000E+00  0.28933105792E+03  0.28933105792E+03  0.00000000000E+00 0.  1.
         21   -1    0    0  501  503 -0.00000000000E+00 -0.00000000000E+00 -0.15360007933E+03  0.15360007933E+03  0.00000000000E+00 0.  1.
          6    2    1    2  501    0  0.49061315350E+02  0.99286415234E+02  0.14798205867E+02  0.20514703183E+03  0.17205090194E+03 0.  0.
         24    2    3    3    0    0 -0.12044105121E+02  0.90278894743E+02 -0.35961464898E+02  0.12506181464E+03  0.77793902205E+02 0.  0.
         -6    2    1    2    0  502 -0.49061315350E+02 -0.99286415234E+02  0.12093277272E+03  0.23778410541E+03  0.17219680704E+03 0.  0.
        -24    2    5    5    0    0  0.47032098028E+01 -0.69824729927E+02 -0.91833624740E+01  0.93871236969E+02  0.61885877968E+02 0.  0.
          5    1    3    3  501    0  0.61105420471E+02  0.90075204917E+01  0.50759670765E+02  0.80085217190E+02  0.47000000000E+01 0. -1.
        -13    1    4    4    0    0  0.25421758498E+02  0.61639773551E+02 -0.15692609312E+01  0.66694752930E+02  0.00000000000E+00 0.  1.
         14    1    4    4    0    0 -0.37465863619E+02  0.28639121192E+02 -0.34392203967E+02  0.58367061714E+02  0.00000000000E+00 0. -1.
         -5    1    5    5    0  502 -0.53764525152E+02 -0.29461685307E+02  0.13011613519E+03  0.14391286844E+03  0.47000000000E+01 0.  1.
         11    1    6    6    0    0 -0.28652181048E+02 -0.34209776178E+02 -0.40877670441E+01  0.44810334795E+02  0.00000000000E+00 0. -1.
        -12    1    6    6    0    0  0.33355390851E+02 -0.35614953749E+02 -0.50955954299E+01  0.49060902174E+02  0.00000000000E+00 0.  1.
</event>
<event>
12    1  0.8297444E-002  0.1883602E+03  0.7818608E-02  0.1163023E+00
         21   -1    0    0  501  502  0.00000000000E+00  0.00000000000E+00  0.65442947148E+02  0.65442947148E+02  0.00000000000E+00 0. -1.
         21   -1    0    0  502  503 -0.00000000000E+00 -0.00000000000E+00 -0.57999493284E+03  0.57999493284E+03  0.00000000000E+00 0. -1.
         -6    2    1    2    0  503 -0.29812122216E+02 -0.70656934937E+02 -0.36492110209E+03  0.40487817303E+03  0.15772684984E+03 0.  0.
        -24    2    3    3    0    0  0.15900547379E+02  0.10785271305E+02 -0.18050396553E+03  0.19810716110E+03  0.79344919321E+02 0.  0.
          6    2    1    2  501    0  0.29812122216E+02  0.70656934937E+02 -0.14963088361E+03  0.24055970696E+03  0.17204187339E+03 0.  0.
         24    2    5    5    0    0  0.73874100864E+02  0.85678753862E+02 -0.12783223279E+03  0.18894203379E+03  0.80992473428E+02 0.  0.
          5    1    5    5  501    0 -0.44061978647E+02 -0.15021818925E+02 -0.21798650823E+02  0.51617673173E+02  0.47000000000E+01 0. -1.
        -11    1    6    6    0    0  0.41975515472E+02  0.99231460005E+01 -0.87124274230E+02  0.97216520643E+02  0.00000000000E+00 0.  1.
         12    1    6    6    0    0  0.31898585391E+02  0.75755607862E+02 -0.40707958557E+02  0.91725513149E+02  0.00000000000E+00 0. -1.
         -5    1    3    3    0  503 -0.45712669595E+02 -0.81442206242E+02 -0.18441713655E+03  0.20677101193E+03  0.47000000000E+01 0.  1.
         13    1    4    4    0    0  0.33692060498E+02 -0.10795576023E+02 -0.34386468439E+02  0.49336888977E+02  0.00000000000E+00 0. -1.
        -14    1    4    4    0    0 -0.17791513119E+02  0.21580847328E+02 -0.14611749710E+03  0.14877027212E+03  0.00000000000E+00 0.  1.
</event>
<event>
12    1  0.8297444E-002  0.2824680E+03  0.7818608E-02  0.1094621E+00
         21   -1    0    0  503  502  0.00000000000E+00  0.00000000000E+00  0.55026635001E+03  0.55026635001E+03  0.00000000000E+00 0.  1.
         21   -1    0    0  501  503 -0.00000000000E+00 -0.00000000000E+00 -0.23314621823E+03  0.23314621823E+03  0.00000000000E+00 0. -1.
          6    2    1    2  501    0 -0.21906144403E+03  0.47626324514E+02 -0.84046590349E+02  0.29277735106E+03  0.16851873752E+03 0.  0.
         24    2    3    3    0    0 -0.23351673919E+03  0.55113189513E+02 -0.54899761973E+02  0.25906331377E+03  0.80822555882E+02 0.  0.
         -6    2    1    2    0  502  0.21906144403E+03 -0.47626324514E+02  0.40116672213E+03  0.49063521718E+03  0.17184875426E+03 0.  0.
        -24    2    5    5    0    0  0.27448575284E+02  0.40407720730E+01  0.10079231116E+03  0.13059097392E+03  0.78263403679E+02 0.  0.
          5    1    3    3  501    0  0.14455295158E+02 -0.74868649986E+01 -0.29146828376E+02  0.33714037284E+02  0.47000000000E+01 0. -1.
        -13    1    4    4    0    0 -0.11470343103E+03 -0.25333508489E+01 -0.54465388792E+02  0.12700304537E+03  0.00000000000E+00 0.  1.
         14    1    4    4    0    0 -0.11881330816E+03  0.57646540362E+02 -0.43437318029E+00  0.13206026841E+03  0.00000000000E+00 0. -1.
         -5    1    5    5    0  502  0.19161286875E+03 -0.51667096587E+02  0.30037441097E+03  0.36004424326E+03  0.47000000000E+01 0.  1.
         13    1    6    6    0    0  0.35279973042E+02 -0.23612530079E+02  0.90675939202E+02  0.10012169607E+03  0.00000000000E+00 0. -1.
        -14    1    6    6    0    0 -0.78313977582E+01  0.27653302152E+02  0.10116371962E+02  0.30469277846E+02  0.00000000000E+00 0.  1.
</event>
<event>
12    1  0.8297444E-002  0.2115273E+03  0.7818608E-02  0.1141845E+00
         21   -1    0    0  501  502  0.00000000000E+00  0.00000000000E+00  0.29452900281E+03  0.29452900281E+03  0.00000000000E+00 0. -1.
         21   -1    0    0  502  503 -0.00000000000E+00 -0.00000000000E+00 -0.40323205942E+03  0.40323205942E+03  0.00000000000E+00 0. -1.
         -6    2    1    2    0  503  0.24468815714E+02 -0.10606371258E+03 -0.33228918628E+03  0.38997129036E+03  0.17266519602E+03 0.  0.
        -24    2    3    3    0    0 -0.38861898799E+02 -0.63857393958E+02 -0.24217237633E+03  0.27192349424E+03  0.98523666814E+02 0.  0.
          6    2    1    2  501    0 -0.24468815714E+02  0.10606371258E+03  0.22358612967E+03  0.30778977188E+03  0.18137131037E+03 0.  0.
         24    2    5    5    0    0 -0.63011932348E+02  0.12742263067E+03  0.19307765002E+03  0.25398798240E+03  0.83808626278E+02 0.  0.
          5    1    5    5  501    0  0.38543116634E+02 -0.21358918085E+02  0.30508479643E+02  0.53801789485E+02  0.47000000000E+01 0. -1.
        -11    1    6    6    0    0 -0.58060621253E+02  0.49978436936E+02  0.14119654348E+03  0.16064041767E+03  0.00000000000E+00 0.  1.
         12    1    6    6    0    0 -0.49513110952E+01  0.77444193729E+02  0.51881106548E+02  0.93347564728E+02  0.00000000000E+00 0. -1.
         -5    1    3    3    0  503  0.63330714513E+02 -0.42206318622E+02 -0.90116809948E+02  0.11804779611E+03  0.47000000000E+01 0.  1.
         13    1    4    4    0    0  0.26744855265E+02 -0.18376070912E+02 -0.13162224330E+03  0.13556320369E+03  0.00000000000E+00 0. -1.
        -14    1    4    4    0    0 -0.65606754064E+02 -0.45481323047E+02 -0.11055013303E+03  0.13636029055E+03  0.00000000000E+00 0.  1.
</event>
<event>
12    1  0.8297444E-002  0.1866209E+03  0.7818608E-02  0.1161875E+00
         21   -1    0    0  501  502  0.00000000000E+00  0.00000000000E+00  0.11662552781E+03  0.11662552781E+03  0.00000000000E+00 0. -1.
         21   -1    0    0  502  503 -0.00000000000E+00 -0.00000000000E+00 -0.30250487700E+03  0.30250487700E+03  0.00000000000E+00 0. -1.
         -6    2    1    2    0  503 -0.61906062965E+02 -0.33095797933E+02 -0.62701316442E+02  0.19552315918E+03  0.17137723950E+03 0.  0.
        -24    2    3    3    0    0  0.10536309957E+02 -0.43524152103E+02 -0.78573370448E+02  0.12048543491E+03  0.79609043691E+02 0.  0.
          6    2    1    2  501    0  0.61906062965E+02  0.33095797933E+02 -0.12317803275E+03  0.22360724562E+03  0.17291523956E+03 0.  0.
         24    2    5    5    0    0  0.10628822573E+03  0.39519633911E+02 -0.74005553893E+02  0.15689094539E+03  0.79239878490E+02 0.  0.
          5    1    5    5  501    0 -0.44382162767E+02 -0.64238359777E+01 -0.49172478856E+02  0.66716300238E+02  0.47000000000E+01 0. -1.
        -13    1    6    6    0    0  0.96974077113E+01  0.37251494142E+01  0.16680149474E+02  0.19650543019E+02  0.00000000000E+00 0.  1.
         14    1    6    6    0    0  0.96590818021E+02  0.35794484497E+02 -0.90685703367E+02  0.13724040237E+03  0.00000000000E+00 0. -1.
         -5    1    3    3    0  503 -0.72442372922E+02  0.10428354170E+02  0.15872054006E+02  0.75037724270E+02  0.47000000000E+01 0.  1.
         13    1    4    4    0    0  0.25399833766E+02 -0.40102628456E+01  0.56011172711E+01  0.26317413971E+02  0.00000000000E+00 0. -1.
        -14    1    4    4    0    0 -0.14863523809E+02 -0.39513889258E+02 -0.84174487719E+02  0.94168020936E+02  0.00000000000E+00 0.  1.
</event>
<event>
12    1  0.8297444E-002  0.1921592E+03  0.7818608E-02  0.1156780E+00
         21   -1    0    0  501  502  0.00000000000E+00  0.00000000000E+00  0.14107368431E+03  0.14107368431E+03  0.00000000000E+00 0. -1.
         21   -1    0    0  502  503 -0.00000000000E+00 -0.00000000000E+00 -0.34666098274E+03  0.34666098274E+03  0.00000000000E+00 0. -1.
         -6    2    1    2    0  503 -0.65934466805E+02 -0.49106448326E+02 -0.22480343953E+03  0.29573929001E+03  0.17368461086E+03 0.  0.
        -24    2    3    3    0    0  0.23035924802E+02 -0.25418273277E+02 -0.16208588921E+03  0.18423843200E+03  0.80592939485E+02 0.  0.
          6    2    1    2  501    0  0.65934466805E+02  0.49106448326E+02  0.19216141096E+02  0.19199537704E+03  0.17243598101E+03 0.  0.
         24    2    5    5    0    0  0.12943020194E+02  0.89684194883E+02 -0.57526071135E+01  0.12057986531E+03  0.79345036676E+02 0.  0.
          5    1    5    5  501    0  0.52991446610E+02 -0.40577746556E+02  0.24968748209E+02  0.71415511736E+02  0.47000000000E+01 0. -1.
        -11    1    6    6    0    0 -0.21902255020E+01 -0.61765710166E+01 -0.21308162085E+02  0.22293157890E+02  0.00000000000E+00 0.  1.
         12    1    6    6    0    0  0.15133245696E+02  0.95860765899E+02  0.15555554972E+02  0.98286707415E+02  0.00000000000E+00 0. -1.
         -5    1    3    3    0  503 -0.88970391606E+02 -0.23688175050E+02 -0.62717550313E+02  0.11150085801E+03  0.47000000000E+01 0.  1.
         13    1    4    4    0    0  0.14549464973E+01  0.15831767169E+02 -0.12132278550E+03  0.12236004251E+03  0.00000000000E+00 0. -1.
        -14    1    4    4    0    0  0.21580978304E+02 -0.41250040446E+02 -0.40763103711E+02  0.61878389487E+02  0.00000000000E+00 0.  1.
</event>
<event>
12    1  0.8297444E-002  0.1814040E+03  0.7818608E-02  0.1166482E+00
         21   -1    0    0  501  502  0.00000000000E+00  0.00000000000E+00  0.56027970028E+02  0.56027970028E+02  0.00000000000E+00 0.  1.
         21   -1    0    0  502  503 -0.00000000000E+00 -0.00000000000E+00 -0.10792585366E+04  0.10792585366E+04  0.00000000000E+00 0.  1.
         -6    2    1    2    0  503  0.23378614249E+02  0.52358339577E+02 -0.89490956156E+03  0.91308460097E+03  0.17196630435E+03 0.  0.
        -24    2    3    3    0    0 -0.41320619557E+02  0.33755219134E+02 -0.31669875316E+03  0.33094896738E+03  0.79889363106E+02 0.  0.
          6    2    1    2  501    0 -0.23378614249E+02 -0.52358339577E+02 -0.12832100499E+03  0.22220190564E+03  0.17210302502E+03 0.  0.
         24    2    5    5    0    0  0.26575101920E+02 -0.80575877225E+02 -0.56717304837E+02  0.13032817128E+03  0.81054744015E+02 0.  0.
          5    1    5    5  501    0 -0.49953716169E+02  0.28217537647E+02 -0.71603700157E+02  0.91873734365E+02  0.47000000000E+01 0. -1.
        -11    1    6    6    0    0 -0.21947858521E+02 -0.52216569470E+02 -0.10596643848E+02  0.57624365347E+02  0.00000000000E+00 0.  1.
         12    1    6    6    0    0  0.48522960441E+02 -0.28359307755E+02 -0.46120660989E+02  0.72703805928E+02  0.00000000000E+00 0. -1.
         -5    1    3    3    0  503  0.64699233806E+02  0.18603120443E+02 -0.57821080840E+03  0.58213563359E+03  0.47000000000E+01 0.  1.
         13    1    4    4    0    0 -0.47263225357E+01  0.51468090703E+02 -0.13047531737E+03  0.14033927080E+03  0.00000000000E+00 0. -1.
        -14    1    4    4    0    0 -0.36594297021E+02 -0.17712871569E+02 -0.18622343579E+03  0.19060969658E+03  0.00000000000E+00 0.  1.
</event>
<event>
12    1  0.8297444E-002  0.2869815E+03  0.7818608E-02  0.1093049E+00
         21   -1    0    0  501  502  0.00000000000E+00  0.00000000000E+00  0.70251574589E+03  0.70251574589E+03  0.00000000000E+00 0. -1.
         21   -1    0    0  502  503 -0.00000000000E+00 -0.00000000000E+00 -0.11458277475E+03  0.11458277475E+03  0.00000000000E+00 0.  1.
         -6    2    1    2    0  503 -0.53523994636E+01  0.21912034933E+03  0.26612727034E+03  0.39138487817E+03  0.18524584521E+03 0.  0.
        -24    2    3    3    0    0 -0.51025066082E+02  0.12649405957E+03  0.75281289338E+02  0.17433672568E+03  0.78241401592E+02 0.  0.
          6    2    1    2  501    0  0.53523994636E+01 -0.21912034933E+03  0.32180570080E+03  0.42571364247E+03  0.17213605272E+03 0.  0.
         24    2    5    5    0    0 -0.47010986237E+01 -0.24123077978E+03  0.29274888794E+03  0.38755171993E+03  0.79246670548E+02 0.  0.
          5    1    5    5  501    0  0.10053498087E+02  0.22110430443E+02  0.29056812856E+02  0.38161922534E+02  0.47000000000E+01 0. -1.
        -13    1    6    6    0    0  0.16241137874E+02 -0.20358030614E+03  0.20277983109E+03  0.28779919302E+03  0.00000000000E+00 0.  1.
         14    1    6    6    0    0 -0.20942236498E+02 -0.37650473638E+02  0.89969056851E+02  0.99752526912E+02  0.00000000000E+00 0. -1.
         -5    1    3    3    0  503  0.45672666618E+02  0.92626289767E+02  0.19084598100E+03  0.21704815249E+03  0.47000000000E+01 0.  1.
         11    1    4    4    0    0 -0.47742623593E+02  0.70437663597E+02  0.81518149319E+02  0.11783900555E+03  0.00000000000E+00 0. -1.
        -12    1    4    4    0    0 -0.32824424888E+01  0.56056395969E+02 -0.62368599812E+01  0.56497720133E+02  0.00000000000E+00 0.  1.
</event>
<event>
12    1  0.8297444E-002  0.1748642E+03  0.7818608E-02  0.1173115E+00
         21   -1    0    0  501  502  0.00000000000E+00  0.00000000000E+00  0.13203686193E+02  0.13203686193E+02  0.00000000000E+00 0. -1.
         21   -1    0    0  502  503 -0.00000000000E+00 -0.00000000000E+00 -0.35094034242E+04  0.35094034242E+04  0.00000000000E+00 0. -1.
         -6    2    1    2    0  503  0.49777853703E+01 -0.23612188580E+02 -0.27840486235E+04  0.27895347667E+04  0.17319111625E+03 0.  0.
        -24    2    3    3    0    0  0.37065231459E+02 -0.53811159416E+02 -0.10669210876E+04  0.10718355361E+04  0.79002133708E+02 0.  0.
          6    2    1    2  501    0 -0.49777853703E+01  0.23612188580E+02 -0.71215111447E+03  0.73307234367E+03  0.17220202500E+03 0.  0.
         24    2    5    5    0    0 -0.33311620551E+02  0.19976242646E+02 -0.20131399668E+03  0.22141554734E+03  0.83599073022E+02 0.  0.
          5    1    5    5  501    0  0.28333835181E+02  0.36359459339E+01 -0.51083711779E+03  0.51165679633E+03  0.47000000000E+01 0. -1.
        -13    1    6    6    0    0  0.14102038985E+02 -0.11930759236E+02 -0.12347688116E+03  0.12485091390E+03  0.00000000000E+00 0.  1.
         14    1    6    6    0    0 -0.47413659537E+02  0.31907001881E+02 -0.77837115522E+02  0.96564633446E+02  0.00000000000E+00 0. -1.
         -5    1    3    3    0  503 -0.32087446089E+02  0.30198970836E+02 -0.17171275360E+04  0.17176992306E+04  0.47000000000E+01 0.  1.
         13    1    4    4    0    0  0.44765999449E+01  0.12693911751E+01 -0.65123690066E+03  0.65125352366E+03  0.00000000000E+00 0. -1.
        -14    1    4    4    0    0  0.32588631514E+02 -0.55080550591E+02 -0.41568418691E+03  0.42058201246E+03  0.00000000000E+00 0.  1.
</event>
<event>
12    1  0.8297444E-002  0.2466688E+03  0.7818608E-02  0.1115619E+00
         21   -1    0    0  501  502  0.00000000000E+00  0.00000000000E+00  0.26925992398E+04  0.26925992398E+04  0.00000000000E+00 0. -1.
         21   -1    0    0  502  503 -0.00000000000E+00 -0.00000000000E+00 -0.44632381129E+02  0.44632381129E+02  0.00000000000E+00 0. -1.
         -6    2    1    2    0  503  0.17661627721E+03  0.18243560413E+02  0.35838558981E+03  0.43440121398E+03  0.16952299799E+03 0.  0.
        -24    2    3    3    0    0  0.15776752241E+03 -0.39412500794E+02  0.23502965439E+03  0.29685749818E+03  0.80258952371E+02 0.  0.
          6    2    1    2  501    0 -0.17661627721E+03 -0.18243560413E+02  0.22895812689E+04  0.23028304070E+04  0.17122896834E+03 0.  0.
         24    2    5    5    0    0 -0.14977282711E+03 -0.67252280951E+02  0.19700613192E+04  0.19784270874E+04  0.77957486768E+02 0.  0.
          5    1    5    5  501    0 -0.26843450102E+02  0.49008720538E+02  0.31951994971E+03  0.32440331959E+03  0.47000000000E+01 0. -1.
        -11    1    6    6    0    0 -0.57316558602E+02 -0.41570965008E+02  0.47039689942E+03  0.47569588605E+03  0.00000000000E+00 0.  1.
         12    1    6    6    0    0 -0.92456268505E+02 -0.25681315943E+02  0.14996644197E+04  0.15027312013E+04  0.00000000000E+00 0. -1.
         -5    1    3    3    0  503  0.18848754795E+02  0.57656061207E+02  0.12335593543E+03  0.13754371580E+03  0.47000000000E+01 0.  1.
         11    1    4    4    0    0  0.64617155209E+02  0.22367821916E+02  0.73103171082E+02  0.10009880033E+03  0.00000000000E+00 0. -1.
        -12    1    4    4    0    0  0.93150367205E+02 -0.61780322710E+02  0.16192648331E+03  0.19675869785E+03  0.00000000000E+00 0.  1.
</event>
<event>
12    1  0.8297444E-002  0.2020837E+03  0.7818608E-02  0.1148146E+00
         21   -1    0    0  501  502  0.00000000000E+00  0.00000000000E+00  0.14194608754E+03  0.14194608754E+03  0.00000000000E+00 0. -1.
         21   -1    0    0  502  503 -0.00000000000E+00 -0.00000000000E+00 -0.31123747047E+03  0.31123747047E+03  0.00000000000E+00 0. -1.
         -6    2    1    2    0  503 -0.10485247858E+03 -0.70419600441E+01 -0.20824497696E+02  0.20242426745E+03  0.17175067069E+03 0.  0.
        -24    2    3    3    0    0 -0.15708795384E+02  0.28343091919E+01  0.43121776897E+02  0.92172950077E+02  0.79884701427E+02 0.  0.
          6    2    1    2  501    0  0.10485247858E+03  0.70419600441E+01 -0.14846688523E+03  0.25075929056E+03  0.17260989057E+03 0.  0.
         24    2    5    5    0    0  0.10113258586E+03  0.47167298265E+02 -0.53771439273E+02  0.14773891464E+03  0.80516242268E+02 0.  0.
          5    1    5    5  501    0  0.37198927271E+01 -0.40125338221E+02 -0.94695445958E+02  0.10302037592E+03  0.47000000000E+01 0. -1.
        -13    1    6    6    0    0 -0.85210691352E+01 -0.79355935578E+01  0.37140975614E+01  0.12221979587E+02  0.00000000000E+00 0.  1.
         14    1    6    6    0    0  0.10965365499E+03  0.55102891823E+02 -0.57485536834E+02  0.13551693505E+03  0.00000000000E+00 0. -1.
         -5    1    3    3    0  503 -0.89143683200E+02 -0.98762692360E+01 -0.63946274593E+02  0.11025131737E+03  0.47000000000E+01 0.  1.
         11    1    4    4    0    0 -0.40566326992E+02  0.19534114765E+02  0.75149057483E+01  0.45647369406E+02  0.00000000000E+00 0. -1.
        -12    1    4    4    0    0  0.24857531608E+02 -0.16699805573E+02  0.35606871148E+02  0.46525580671E+02  0.00000000000E+00 0.  1.
</event>
<event>
12    1  0.8297444E-002  0.2147987E+03  0.7818608E-02  0.1138532E+00
         21   -1    0    0  503  502  0.00000000000E+00  0.00000000000E+00  0.39708623433E+03  0.39708623433E+03  0.00000000000E+00 0.  1.
         21   -1    0    0  501  503 -0.00000000000E+00 -0.00000000000E+00 -0.20057843345E+03  0.20057843345E+03  0.00000000000E+00 0.  1.
          6    2    1    2  501    0 -0.10178952540E+03  0.78698383022E+02 -0.98306494031E+02  0.23289903233E+03  0.16740146213E+03 0.  0.
         24    2    3    3    0    0 -0.10920308118E+03  0.94021922650E+02 -0.30412384313E+02  0.16274582991E+03  0.69252127436E+02 0.  0.
         -6    2    1    2    0  502  0.10178952540E+03 -0.78698383022E+02  0.29481429490E+03  0.36476563545E+03  0.17199987603E+03 0.  0.
        -24    2    5    5    0    0  0.74878987598E+02 -0.52887635663E+02  0.30278448727E+03  0.32634707626E+03  0.80124925337E+02 0.  0.
          5    1    3    3  501    0  0.74135557834E+01 -0.15323539628E+02 -0.67894109718E+02  0.70153202425E+02  0.47000000000E+01 0. -1.
        -11    1    4    4    0    0 -0.18794716873E+02  0.16130328150E+02 -0.35519361951E+02  0.43301893053E+02  0.00000000000E+00 0.  1.
         12    1    4    4    0    0 -0.90408364309E+02  0.77891594500E+02  0.51069776382E+01  0.11944393685E+03  0.00000000000E+00 0. -1.
         -5    1    5    5    0  502  0.26910537801E+02 -0.25810747359E+02 -0.79701923677E+01  0.38418559191E+02  0.47000000000E+01 0.  1.
         11    1    6    6    0    0  0.17575189792E+02 -0.25395945098E+02  0.20672825016E+02  0.37164593605E+02  0.00000000000E+00 0. -1.
        -12    1    6    6    0    0  0.57303797806E+02 -0.27491690565E+02  0.28211166226E+03  0.28918248265E+03  0.00000000000E+00 0.  1.
</event>
<event>
12    1  0.8297444E-002  0.1752421E+03  0.7818608E-02  0.1173012E+00
         21   -1    0    0  503  502  0.00000000000E+00  0.00000000000E+00  0.94605340183E+02  0.94605340183E+02  0.00000000000E+00 0. -1.
         21   -1    0    0  501  503 -0.00000000000E+00 -0.00000000000E+00 -0.69808486023E+03  0.69808486023E+03  0.00000000000E+00 0. -1.
          6    2    1    2  501    0  0.21434486708E+02  0.17875882800E+02 -0.59229706141E+03  0.61709162910E+03  0.17090139070E+03 0.  0.
         24    2    3    3    0    0  0.67394317832E+02 -0.22232700636E+02 -0.44567948314E+03  0.45822121398E+03  0.79373750048E+02 0.  0.
         -6    2    1    2    0  502 -0.21434486708E+02 -0.17875882800E+02 -0.11182458630E+02  0.17559857131E+03  0.17300527870E+03 0.  0.
        -24    2    5    5    0    0 -0.41899345505E+02 -0.56933653469E+02 -0.50898625864E+02  0.11606888262E+03  0.76709317212E+02 0.  0.
          5    1    3    3  501    0 -0.45959831124E+02  0.40108583436E+02 -0.14661757828E+03  0.15887041512E+03  0.47000000000E+01 0. -1.
        -13    1    4    4    0    0  0.26419704041E+01 -0.55836868099E+01  0.12636008018E+01  0.63050973817E+01  0.00000000000E+00 0.  1.
         14    1    4    4    0    0  0.64752347428E+02 -0.16649013826E+02 -0.44694308394E+03  0.45191611660E+03  0.00000000000E+00 0. -1.
         -5    1    5    5    0  502  0.20464858797E+02  0.39057770669E+02  0.39716167234E+02  0.59529688685E+02  0.47000000000E+01 0.  1.
         13    1    6    6    0    0 -0.10417816038E+02 -0.33721969812E+02  0.15861305805E+02  0.38694743323E+02  0.00000000000E+00 0. -1.
        -14    1    6    6    0    0 -0.31481529467E+02 -0.23211683657E+02 -0.66759931669E+02  0.77374139298E+02  0.00000000000E+00 0.  1.
</event>
<event>
12    1  0.8297444E-002  0.1768822E+03  0.7818608E-02  0.1170995E+00
         21   -1    0    0  503  502  0.00000000000E+00  0.00000000000E+00  0.17693771428E+03  0.17693771428E+03  0.00000000000E+00 0. -1.
         21   -1    0    0  501  503 -0.00000000000E+00 -0.00000000000E+00 -0.22847557761E+03  0.22847557761E+03  0.00000000000E+00 0. -1.
          6    2    1    2  501    0  0.20755436620E+01  0.40142545248E+02  0.71167145033E+02  0.19013713412E+03  0.17167304803E+03 0.  0.
         24    2    3    3    0    0  0.39323582840E+02 -0.19094252707E+02  0.79152620290E+02  0.11955191988E+03  0.78208628645E+02 0.  0.
         -6    2    1    2    0  502 -0.20755436620E+01 -0.40142545248E+02 -0.12270500836E+03  0.21527615778E+03  0.17225438517E+03 0.  0.
        -24    2    5    5    0    0 -0.30107855496E+01 -0.42676122721E+02  0.34771318337E+01  0.88977637607E+02  0.77939805415E+02 0.  0.
          5    1    3    3  501    0 -0.37248039178E+02  0.59236797955E+02 -0.79854752565E+01  0.70585214242E+02  0.47000000000E+01 0. -1.
        -11    1    4    4    0    0 -0.37422711975E-02 -0.16176621513E+02 -0.12061347300E+02  0.20178186149E+02  0.00000000000E+00 0.  1.
         12    1    4    4    0    0  0.39327325111E+02 -0.29176311942E+01  0.91213967590E+02  0.99373733731E+02  0.00000000000E+00 0. -1.
         -5    1    5    5    0  502  0.93524188759E+00  0.25335774735E+01 -0.12618214020E+03  0.12629852017E+03  0.47000000000E+01 0.  1.
         13    1    6    6    0    0 -0.12165473032E+01 -0.65124416927E+02  0.90947817579E+01  0.65767657117E+02  0.00000000000E+00 0. -1.
        -14    1    6    6    0    0 -0.17942382464E+01  0.22448294206E+02 -0.56176499241E+01  0.23209980490E+02  0.00000000000E+00 0.  1.
</event>
<event>
12    1  0.8297444E-002  0.1912806E+03  0.7818608E-02  0.1157538E+00
         21   -1    0    0  503  502  0.00000000000E+00  0.00000000000E+00  0.13364268446E+03  0.13364268446E+03  0.00000000000E+00 0. -1.
         21   -1    0    0  501  503 -0.00000000000E+00 -0.00000000000E+00 -0.27880299904E+03  0.27880299904E+03  0.00000000000E+00 0. -1.
          6    2    1    2  501    0  0.83779903335E+02  0.70970245140E+01 -0.10380664529E+03  0.21674591659E+03  0.17068547915E+03 0.  0.
         24    2    3    3    0    0  0.23237459928E+02  0.42737381944E+02 -0.10472863222E+03  0.14632885480E+03  0.89875380274E+02 0.  0.
         -6    2    1    2    0  502 -0.83779903335E+02 -0.70970245140E+01 -0.41353669300E+02  0.19569976691E+03  0.17181045616E+03 0.  0.
        -24    2    5    5    0    0 -0.11688037267E+03  0.24356560247E+02 -0.41616392618E+02  0.14979630203E+03  0.80328976246E+02 0.  0.
          5    1    3    3  501    0  0.60542443407E+02 -0.35640357430E+02  0.92198693377E+00  0.70417061791E+02  0.47000000000E+01 0. -1.
        -13    1    4    4    0    0  0.91179320680E+00  0.50670640459E+02 -0.14027795841E+02  0.52584448533E+02  0.00000000000E+00 0.  1.
         14    1    4    4    0    0  0.22325666721E+02 -0.79332585150E+01 -0.90700836381E+02  0.93744406262E+02  0.00000000000E+00 0. -1.
         -5    1    5    5    0  502  0.33100469337E+02 -0.31453584761E+02  0.26272331735E+00  0.45903464882E+02  0.47000000000E+01 0.  1.
         13    1    6    6    0    0 -0.79497731184E+02  0.24174147335E+02  0.12496308866E+02  0.84026402982E+02  0.00000000000E+00 0. -1.
        -14    1    6    6    0    0 -0.37382641487E+02  0.18241291191E+00 -0.54112701484E+02  0.65769899049E+02  0.00000000000E+00 0.  1.
</event>
<event>
12    1  0.8297444E-002  0.2413164E+03  0.7818608E-02  0.1119226E+00
         21   -1    0    0  503  502  0.00000000000E+00  0.00000000000E+00  0.52565096783E+03  0.52565096783E+03  0.00000000000E+00 0.  1.
         21   -1    0    0  501  503 -0.00000000000E+00 -0.00000000000E+00 -0.48472854168E+03  0.48472854168E+03  0.00000000000E+00 0. -1.
          6    2    1    2  501    0 -0.15395738790E+03 -0.61721034315E+02 -0.42377819579E+03  0.48675726357E+03  0.17272032608E+03 0.  0.
         24    2    3    3    0    0 -0.14856731267E+03  0.52757011056E+01 -0.33359776515E+03  0.37418632798E+03  0.81411668194E+02 0.  0.
         -6    2    1    2    0  502  0.15395738790E+03  0.61721034315E+02  0.46470062194E+03  0.52362224594E+03  0.17527471310E+03 0.  0.
        -24    2    5    5    0    0  0.16963648973E+03  0.11449012862E+02  0.34228813634E+03  0.39028051577E+03  0.79057537070E+02 0.  0.
          5    1    3    3  501    0 -0.53900752267E+01 -0.66996735421E+02 -0.90180430636E+02  0.11257093558E+03  0.47000000000E+01 0. -1.
        -11    1    4    4    0    0 -0.29098276546E+02  0.23674239799E+02 -0.14812308682E+03  0.15279930686E+03  0.00000000000E+00 0.  1.
         12    1    4    4    0    0 -0.11946903613E+03 -0.18398538694E+02 -0.18547467833E+03  0.22138702112E+03  0.00000000000E+00 0. -1.
         -5    1    5    5    0  502 -0.15679101830E+02  0.50272021454E+02  0.12241248560E+03  0.13334173018E+03  0.47000000000E+01 0.  1.
         13    1    6    6    0    0  0.60523142233E+01  0.20920346021E+02  0.24824770594E+02  0.33023637294E+02  0.00000000000E+00 0. -1.
        -14    1    6    6    0    0  0.16358417551E+03 -0.94713331589E+01  0.31746336574E+03  0.35725687847E+03  0.00000000000E+00 0.  1.
</event>
<event>
12    1  0.8297444E-002  0.2298511E+03  0.7818608E-02  0.1127490E+00
         21   -1    0    0  501  502  0.00000000000E+00  0.00000000000E+00  0.19501827462E+03  0.19501827462E+03  0.00000000000E+00 0.  1.
         21   -1    0    0  502  503 -0.00000000000E+00 -0.00000000000E+00 -0.27057149009E+03  0.27057149009E+03  0.00000000000E+00 0. -1.
         -6    2    1    2    0  503 -0.13070397260E+03 -0.66449587296E+02 -0.68419090121E+02  0.23981803937E+03  0.17700972856E+03 0.  0.
        -24    2    3    3    0    0 -0.90543463280E+02  0.27360950196E+02 -0.20789209836E+02  0.12710611032E+03  0.82322728916E+02 0.  0.
          6    2    1    2  501    0  0.13070397260E+03  0.66449587296E+02 -0.71341253482E+01  0.22577172534E+03  0.17153104708E+03 0.  0.
         24    2    5    5    0    0  0.12894741817E+03  0.10358978507E+03  0.11727082979E+02  0.18381561787E+03  0.79324502363E+02 0.  0.
          5    1    5    5  501    0  0.17565544376E+01 -0.37140197778E+02 -0.18861208327E+02  0.41956107470E+02  0.47000000000E+01 0. -1.
        -11    1    6    6    0    0  0.70651053217E+01  0.28984602870E+01  0.24057515360E+02  0.25240460189E+02  0.00000000000E+00 0.  1.
         12    1    6    6    0    0  0.12188231284E+03  0.10069132479E+03 -0.12330432381E+02  0.15857515768E+03  0.00000000000E+00 0. -1.
         -5    1    3    3    0  503 -0.40160509324E+02 -0.93810537491E+02 -0.47629880285E+02  0.11271192905E+03  0.47000000000E+01 0.  1.
         11    1    4    4    0    0 -0.36171063240E+02  0.25149395300E+02 -0.48932114144E+02  0.65842157425E+02  0.00000000000E+00 0. -1.
        -12    1    4    4    0    0 -0.54372400040E+02  0.22115548960E+01  0.28142904308E+02  0.61263952893E+02  0.00000000000E+00 0.  1.
</event>
<event>
12    1  0.8297444E-002  0.1746042E+03  0.7818608E-02  0.1173210E+00
         21   -1    0    0  501  502  0.00000000000E+00  0.00000000000E+00  0.10937249085E+03  0.10937249085E+03  0.00000000000E+00 0. -1.
         21   -1    0    0  502  503 -0.00000000000E+00 -0.00000000000E+00 -0.31136458152E+03  0.31136458152E+03  0.00000000000E+00 0. -1.
         -6    2    1    2    0  503  0.25850302078E+02  0.19735406535E+02 -0.32294413566E+02  0.17725418315E+03  0.17122614259E+03 0.  0.
        -24    2    3    3    0    0 -0.34917881090E+02 -0.22081463926E+02 -0.45893309407E+02  0.10209806092E+03  0.81307863860E+02 0.  0.
          6    2    1    2  501    0 -0.25850302078E+02 -0.19735406535E+02 -0.16969767711E+03  0.24348288923E+03  0.17154851018E+03 0.  0.
         24    2    5    5    0    0 -0.28655589354E+02  0.46049903568E+02 -0.14171789781E+03  0.17178536688E+03  0.80526475738E+02 0.  0.
          5    1    5    5  501    0  0.28052872755E+01 -0.65785310102E+02 -0.27979779299E+02  0.71697522353E+02  0.47000000000E+01 0. -1.
        -11    1    6    6    0    0 -0.64460458132E+01 -0.17337533036E+02 -0.74499594539E+02  0.76761521251E+02  0.00000000000E+00 0.  1.
         12    1    6    6    0    0 -0.22209543541E+02  0.63387436603E+02 -0.67218303268E+02  0.95023845626E+02  0.00000000000E+00 0. -1.
         -5    1    3    3    0  503  0.60768183169E+02  0.41816870461E+02  0.13598895841E+02  0.75156122232E+02  0.47000000000E+01 0.  1.
         11    1    4    4    0    0 -0.21727229939E+02  0.19327920477E+02  0.10485960300E+02  0.30912722207E+02  0.00000000000E+00 0. -1.
        -12    1    4    4    0    0 -0.13190651151E+02 -0.41409384404E+02 -0.56379269707E+02  0.71185338709E+02  0.00000000000E+00 0.  1.
</event>
<event>
12    1  0.8297444E-002  0.3228909E+03  0.7818608E-02  0.1074466E+00
         21   -1    0    0  501  502  0.00000000000E+00  0.00000000000E+00  0.35984286496E+03  0.35984286496E+03  0.00000000000E+00 0.  1.
         21   -1    0    0  502  503 -0.00000000000E+00 -0.00000000000E+00 -0.31171449789E+03  0.31171449789E+03  0.00000000000E+00 0. -1.
         -6    2    1    2    0  503 -0.67806481604E+02  0.26509832957E+03  0.11546968770E+03  0.34291662106E+03  0.17141679303E+03 0.  0.
        -24    2    3    3    0    0 -0.74549439476E+02  0.84703636793E+02  0.74628324007E+02  0.15777392028E+03  0.81184346796E+02 0.  0.
          6    2    1    2  501    0  0.67806481604E+02 -0.26509832957E+03 -0.67341320629E+02  0.32864074179E+03  0.16910068129E+03 0.  0.
         24    2    5    5    0    0  0.72590183116E+02 -0.93624149134E+02 -0.72501059438E+02  0.15695792011E+03  0.73106559751E+02 0.  0.
          5    1    5    5  501    0 -0.47837015129E+01 -0.17147418044E+03  0.51597388090E+01  0.17168282169E+03  0.47000000000E+01 0. -1.
        -13    1    6    6    0    0  0.33586105850E+02 -0.17031823126E+02 -0.58939826650E+02  0.69942924379E+02  0.00000000000E+00 0.  1.
         14    1    6    6    0    0  0.39004077266E+02 -0.76592326008E+02 -0.13561232788E+02  0.87014995727E+02  0.00000000000E+00 0. -1.
         -5    1    3    3    0  503  0.67429578729E+01  0.18039469278E+03  0.40841363697E+02  0.18514270078E+03  0.47000000000E+01 0.  1.
         13    1    4    4    0    0 -0.25379594756E+02 -0.94188123924E+01 -0.15010496406E+01  0.27112561791E+02  0.00000000000E+00 0. -1.
        -14    1    4    4    0    0 -0.49169844720E+02  0.94122449185E+02  0.76129373647E+02  0.13066135849E+03  0.00000000000E+00 0.  1.
</event>
<event>
12    1  0.8297444E-002  0.2015184E+03  0.7818608E-02  0.1148770E+00
         21   -1    0    0  503  502  0.00000000000E+00  0.00000000000E+00  0.37213118513E+02  0.37213118513E+02  0.00000000000E+00 0. -1.
         21   -1    0    0  501  503 -0.00000000000E+00 -0.00000000000E+00 -0.13015450400E+04  0.13015450400E+04  0.00000000000E+00 0. -1.
          6    2    1    2  501    0 -0.10164650389E+03  0.17932011010E+02 -0.35619928643E+03  0.40853531345E+03  0.17137561644E+03 0.  0.
         24    2    3    3    0    0 -0.65777063554E+02  0.50087629976E+02 -0.11263847190E+03  0.16021181284E+03  0.78390094111E+02 0.  0.
         -6    2    1    2    0  502  0.10164650389E+03 -0.17932011010E+02 -0.90813263506E+03  0.93022284507E+03  0.17307827667E+03 0.  0.
        -24    2    5    5    0    0 -0.32368034248E+01 -0.15555674325E+02 -0.58337244199E+03  0.58890564929E+03  0.78955695148E+02 0.  0.
          5    1    3    3  501    0 -0.35869440331E+02 -0.32155618965E+02 -0.24356081453E+03  0.24832350061E+03  0.47000000000E+01 0. -1.
        -11    1    4    4    0    0  0.39703013536E+01  0.36146114643E+02 -0.65392568323E+02  0.74823077246E+02  0.00000000000E+00 0.  1.
         12    1    4    4    0    0 -0.69747364908E+02  0.13941515332E+02 -0.47245903577E+02  0.85388735593E+02  0.00000000000E+00 0. -1.
         -5    1    5    5    0  502  0.10488330731E+03 -0.23763366853E+01 -0.32476019307E+03  0.34131719578E+03  0.47000000000E+01 0.  1.
         11    1    6    6    0    0  0.27087512622E+02 -0.11900980590E+02 -0.93221463461E+02  0.97803925938E+02  0.00000000000E+00 0. -1.
        -12    1    6    6    0    0 -0.30324316047E+02 -0.36546937353E+01 -0.49015097853E+03  0.49110172336E+03  0.00000000000E+00 0.  1.
</event>
<event>
12    1  0.8297444E-002  0.2438612E+03  0.7818608E-02  0.1117344E+00
         21   -1    0    0  503  502  0.00000000000E+00  0.00000000000E+00  0.67972250681E+03  0.67972250681E+03  0.00000000000E+00 0. -1.
         21   -1    0    0  501  503 -0.00000000000E+00 -0.00000000000E+00 -0.92498643940E+02  0.92498643940E+02  0.00000000000E+00 0.  1.
          6    2    1    2  501    0  0.90210382654E+01 -0.17233744127E+03  0.20220130396E+03  0.31678644941E+03  0.17229832969E+03 0.  0.
         24    2    3    3    0    0  0.61129401633E+02 -0.50915844873E+02  0.10776738589E+03  0.15431078820E+03  0.76607981895E+02 0.  0.
         -6    2    1    2    0  502 -0.90210382654E+01  0.17233744127E+03  0.38502255891E+03  0.45543470134E+03  0.17145501895E+03 0.  0.
        -24    2    5    5    0    0  0.12151308221E+02  0.14036827369E+03  0.38318406858E+03  0.41675956750E+03  0.83711409825E+02 0.  0.
          5    1    3    3  501    0 -0.52108363368E+02 -0.12142159639E+03  0.94433918071E+02  0.16247566121E+03  0.47000000000E+01 0. -1.
        -11    1    4    4    0    0  0.73491079818E+01  0.19960683838E+02  0.17218640138E+02  0.27366400121E+02  0.00000000000E+00 0.  1.
         12    1    4    4    0    0  0.53780293651E+02 -0.70876528711E+02  0.90548745749E+02  0.12694438808E+03  0.00000000000E+00 0. -1.
         -5    1    5    5    0  502 -0.21172346486E+02  0.31969167574E+02  0.18384903280E+01  0.38675133844E+02  0.47000000000E+01 0.  1.
         13    1    6    6    0    0  0.15461613845E+02  0.14839900066E+03  0.32110689298E+03  0.35407762089E+03  0.00000000000E+00 0. -1.
        -14    1    6    6    0    0 -0.33103056238E+01 -0.80307269697E+01  0.62077175608E+02  0.62681946607E+02  0.00000000000E+00 0.  1.
</event>
<event>
12    1  0.8297444E-002  0.2152171E+03  0.7818608E-02  0.1137758E+00
         21   -1    0    0  501  502  0.00000000000E+00  0.00000000000E+00  0.76589685272E+02  0.76589685272E+02  0.00000000000E+00 0. -1.
         21   -1    0    0  502  503 -0.00000000000E+00 -0.00000000000E+00 -0.76259070885E+03  0.76259070885E+03  0.00000000000E+00 0. -1.
         -6    2    1    2    0  503 -0.93145104782E+02  0.88433370731E+02 -0.53530369786E+03  0.57644845245E+03  0.17101548989E+03 0.  0.
        -24    2    3    3    0    0 -0.41916112611E+02  0.47343412123E+02 -0.47989224859E+03  0.49039432386E+03  0.78687123753E+02 0.  0.
          6    2    1    2  501    0  0.93145104782E+02 -0.88433370731E+02 -0.15069732572E+03  0.26273194168E+03  0.17269023596E+03 0.  0.
         24    2    5    5    0    0  0.81382440262E+02 -0.12875238583E+03 -0.12184959704E+03  0.21156295981E+03  0.81922422002E+02 0.  0.
          5    1    5    5  501    0  0.11762664521E+02  0.40319015097E+02 -0.28847728680E+02  0.51168981865E+02  0.47000000000E+01 0. -1.
        -11    1    6    6    0    0 -0.73964093153E+00 -0.19190261762E+02 -0.56828554888E+02  0.59985813872E+02  0.00000000000E+00 0.  1.
         12    1    6    6    0    0  0.82122081193E+02 -0.10956212407E+03 -0.65021042154E+02  0.15157714594E+03  0.00000000000E+00 0. -1.
         -5    1    3    3    0  503 -0.51228992171E+02  0.41089958608E+02 -0.55411449268E+02  0.86054128590E+02  0.47000000000E+01 0.  1.
         13    1    4    4    0    0 -0.49401300471E+02  0.64689523293E+02 -0.36559943686E+03  0.37455062561E+03  0.00000000000E+00 0. -1.
        -14    1    4    4    0    0  0.74851878604E+01 -0.17346111170E+02 -0.11429281173E+03  0.11584369825E+03  0.00000000000E+00 0.  1.
</event>
<event>
12    1  0.8297444E-002  0.1729632E+03  0.7818608E-02  0.1174900E+00
         21   -1    0    0  501  502  0.00000000000E+00  0.00000000000E+00  0.49524614200E+02  0.49524614200E+02  0.00000000000E+00 0.  1.
         21   -1    0    0  502  503 -0.00000000000E+00 -0.00000000000E+00 -0.65199838326E+03  0.65199838326E+03  0.00000000000E+00 0.  1.
         -6    2    1    2    0  503 -0.12776831830E+02 -0.27942621033E+01 -0.39744698526E+03  0.43328381172E+03  0.17204563369E+03 0.  0.
        -24    2    3    3    0    0  0.18867477933E+02 -0.52949472234E+02 -0.32446289116E+03  0.33912609597E+03  0.81059933957E+02 0.  0.
          6    2    1    2  501    0  0.12776831830E+02  0.27942621033E+01 -0.20502678380E+03  0.26823918575E+03  0.17246803576E+03 0.  0.
         24    2    5    5    0    0  0.34398121861E+02 -0.40987146970E+02 -0.19617094738E+03  0.21839133923E+03  0.79677847947E+02 0.  0.
          5    1    5    5  501    0 -0.21621290031E+02  0.43781409073E+02 -0.88558364270E+01  0.49847846512E+02  0.47000000000E+01 0. -1.
        -13    1    6    6    0    0  0.47205135106E+02 -0.25518423805E+02 -0.58978842615E+02  0.79737184614E+02  0.00000000000E+00 0.  1.
         14    1    6    6    0    0 -0.12807013245E+02 -0.15468723164E+02 -0.13719210476E+03  0.13865415462E+03  0.00000000000E+00 0. -1.
         -5    1    3    3    0  503 -0.31644309763E+02  0.50155210130E+02 -0.72984094096E+02  0.94157715746E+02  0.47000000000E+01 0.  1.
         13    1    4    4    0    0  0.34046147279E+01 -0.68618519938E+02 -0.29150911891E+03  0.29949567457E+03  0.00000000000E+00 0. -1.
        -14    1    4    4    0    0  0.15462863205E+02  0.15669047705E+02 -0.32953772251E+02  0.39630421396E+02  0.00000000000E+00 0.  1.
</event>
<event>
12    1  0.8297444E-002  0.1982148E+03  0.7818608E-02  0.1151354E+00
         21   -1    0    0  501  502  0.00000000000E+00  0.00000000000E+00  0.65336415316E+03  0.65336415316E+03  0.00000000000E+00 0. -1.
         21   -1    0    0  502  503 -0.00000000000E+00 -0.00000000000E+00 -0.14675996033E+04  0.14675996033E+04  0.00000000000E+00 0. -1.
         -6    2    1    2    0  503 -0.24629020928E+02 -0.94239146312E+02 -0.14457183915E+04  0.14592432234E+04  0.17263114521E+03 0.  0.
        -24    2    3    3    0    0 -0.25982179839E+01 -0.12779372921E+03 -0.12727017579E+04  0.12815690503E+04  0.79444811605E+02 0.  0.
          6    2    1    2  501    0  0.24629020928E+02  0.94239146312E+02  0.63148294132E+03  0.66172053306E+03  0.17209228141E+03 0.  0.
         24    2    5    5    0    0 -0.19553089087E+02  0.31821202191E+02  0.15737384764E+03  0.18146062290E+03  0.82258844754E+02 0.  0.
          5    1    5    5  501    0  0.44182110015E+02  0.62417944121E+02  0.47410909368E+03  0.48025991015E+03  0.47000000000E+01 0. -1.
        -13    1    6    6    0    0  0.10299239718E+02  0.15932808174E+02 -0.14967448353E+01  0.19030737247E+02  0.00000000000E+00 0.  1.
         14    1    6    6    0    0 -0.29852328805E+02  0.15888394017E+02  0.15887059248E+03  0.16242988565E+03  0.00000000000E+00 0. -1.
         -5    1    3    3    0  503 -0.22030802944E+02  0.33554582902E+02 -0.17301663358E+03  0.17767417315E+03  0.47000000000E+01 0.  1.
         11    1    4    4    0    0 -0.32886854644E+02 -0.73672661727E+02 -0.50914779969E+03  0.51550042505E+03  0.00000000000E+00 0. -1.
        -12    1    4    4    0    0  0.30288636660E+02 -0.54121067487E+02 -0.76355395822E+03  0.76606862524E+03  0.00000000000E+00 0.  1.
</event>
<event>
12    1  0.8297444E-002  0.1871630E+03  0.7818608E-02  0.1161770E+00
         21   -1    0    0  503  502  0.00000000000E+00  0.00000000000E+00  0.81261412311E+02  0.81261412311E+02  0.00000000000E+00 0.  1.
         21   -1    0    0  501  503 -0.00000000000E+00 -0.00000000000E+00 -0.71640073967E+03  0.71640073967E+03  0.00000000000E+00 0.  1.
          6    2    1    2  501    0  0.66048452638E+02  0.31143401004E+02 -0.57398164232E+03  0.60372586174E+03  0.17233015086E+03 0.  0.
         24    2    3    3    0    0  0.11102566460E+03  0.12141851065E+02 -0.39524969067E+03  0.41838507013E+03  0.79684541675E+02 0.  0.
         -6    2    1    2    0  502 -0.66048452638E+02 -0.31143401004E+02 -0.61157685037E+02  0.19393629024E+03  0.16893404840E+03 0.  0.
        -24    2    5    5    0    0 -0.11994771274E+02 -0.22631723252E+02 -0.97147030550E+02  0.12827372771E+03  0.79752957564E+02 0.  0.
          5    1    3    3  501    0 -0.44977211965E+02  0.19001549940E+02 -0.17873195165E+03  0.18534079162E+03  0.47000000000E+01 0. -1.
        -13    1    4    4    0    0  0.78340969287E+02 -0.15556437629E+02 -0.33541712073E+03  0.34479552651E+03  0.00000000000E+00 0.  1.
         14    1    4    4    0    0  0.32684695316E+02  0.27698288694E+02 -0.59832569941E+02  0.73589543620E+02  0.00000000000E+00 0. -1.
         -5    1    5    5    0  502 -0.54053681365E+02 -0.85116777525E+01  0.35989345513E+02  0.65662562528E+02  0.47000000000E+01 0.  1.
         11    1    6    6    0    0  0.29426781684E+02  0.86621022921E+01 -0.46790578214E+02  0.55949313722E+02  0.00000000000E+00 0. -1.
        -12    1    6    6    0    0 -0.41421552957E+02 -0.31293825544E+02 -0.50356452336E+02  0.72324413986E+02  0.00000000000E+00 0.  1.
</event>
<event>
12    1  0.8297444E-002  0.1971690E+03  0.7818608E-02  0.1152287E+00
         21   -1    0    0  503  502  0.00000000000E+00  0.00000000000E+00  0.17222878571E+04  0.17222878571E+04  0.00000000000E+00 0.  1.
         21   -1    0    0  501  503 -0.00000000000E+00 -0.00000000000E+00 -0.22542650525E+02  0.22542650525E+02  0.00000000000E+00 0.  1.
          6    2    1    2  501    0  0.94903255892E+02 -0.81085866923E+01  0.81291090668E+03  0.83648057794E+03  0.17263614313E+03 0.  0.
         24    2    3    3    0    0  0.86774811828E+02 -0.55743237271E+02  0.40557884736E+03  0.42626523439E+03  0.81059682644E+02 0.  0.
         -6    2    1    2    0  502 -0.94903255892E+02  0.81085866923E+01  0.88683429987E+03  0.90834992966E+03  0.17190736496E+03 0.  0.
        -24    2    5    5    0    0 -0.93899929511E+02 -0.30366047079E+02  0.82600384945E+03  0.83621299179E+03  0.85032433479E+02 0.  0.
          5    1    3    3  501    0  0.81284440640E+01  0.47634650579E+02  0.40733205932E+03  0.41021534355E+03  0.47000000000E+01 0. -1.
        -11    1    4    4    0    0  0.27251663262E+02 -0.37997159509E+01  0.23744885985E+02  0.36344333841E+02  0.00000000000E+00 0.  1.
         12    1    4    4    0    0  0.59523148566E+02 -0.51943521320E+02  0.38183396137E+03  0.38992090054E+03  0.00000000000E+00 0. -1.
         -5    1    5    5    0  502 -0.10033263813E+01  0.38474633771E+02  0.60830450412E+02  0.72136937868E+02  0.47000000000E+01 0.  1.
         11    1    6    6    0    0 -0.12535168801E+02 -0.45179525706E+02  0.34105537709E+03  0.34426311194E+03  0.00000000000E+00 0. -1.
        -12    1    6    6    0    0 -0.81364760709E+02  0.14813478628E+02  0.48494847236E+03  0.49194987985E+03  0.00000000000E+00 0.  1.
</event>
<event>
12    1  0.8297444E-002  0.2358658E+03  0.7818608E-02  0.1122633E+00
         21   -1    0    0  503  502  0.00000000000E+00  0.00000000000E+00  0.10997552908E+03  0.10997552908E+03  0.00000000000E+00 0. -1.
         21   -1    0    0  501  503 -0.00000000000E+00 -0.00000000000E+00 -0.50876592349E+03  0.50876592349E+03  0.00000000000E+00 0.  1.
          6    2    1    2  501    0  0.14213387872E+03 -0.76856221153E+02 -0.22552049560E+03  0.32633138591E+03  0.17182479824E+03 0.  0.
         24    2    3    3    0    0  0.16578451799E+03 -0.36422304949E+02 -0.16611051910E+03  0.25052973933E+03  0.79758103229E+02 0.  0.
         -6    2    1    2    0  502 -0.14213387872E+03  0.76856221153E+02 -0.17326989881E+03  0.29241006666E+03  0.17138340363E+03 0.  0.
        -24    2    5    5    0    0 -0.14890021876E+03  0.75526457944E+02 -0.86194110381E+02  0.20493530139E+03  0.81814009156E+02 0.  0.
          5    1    3    3  501    0 -0.23650639271E+02 -0.40433916204E+02 -0.59409976494E+02  0.75801646582E+02  0.47000000000E+01 0. -1.
        -11    1    4    4    0    0  0.26387361016E+02  0.20570842139E+02 -0.50919263240E+02  0.60928020947E+02  0.00000000000E+00 0.  1.
         12    1    4    4    0    0  0.13939715697E+03 -0.56993147088E+02 -0.11519125586E+03  0.18960171838E+03  0.00000000000E+00 0. -1.
         -5    1    5    5    0  502  0.67663400482E+01  0.13297632088E+01 -0.87075788430E+02  0.87474765267E+02  0.47000000000E+01 0.  1.
         11    1    6    6    0    0 -0.96229567436E+01  0.25632812457E+02  0.92214852517E+01  0.28890797171E+02  0.00000000000E+00 0. -1.
        -12    1    6    6    0    0 -0.13927726202E+03  0.49893645487E+02 -0.95415595633E+02  0.17604450422E+03  0.00000000000E+00 0.  1.
</event>
<event>
12    1  0.8297444E-002  0.1779160E+03  0.7818608E-02  0.1169880E+00
         21   -1    0    0  501  502  0.00000000000E+00  0.00000000000E+00  0.92995502320E+01  0.92995502320E+01  0.00000000000E+00 0. -1.
         21   -1    0    0  502  503 -0.00000000000E+00 -0.00000000000E+00 -0.36466423298E+04  0.36466423298E+04  0.00000000000E+00 0. -1.
         -6    2    1    2    0  503 -0.14532499560E+02  0.44093631619E+02 -0.22946031804E+04  0.23014903565E+04  0.17175175098E+03 0.  0.
        -24    2    3    3    0    0  0.11501187807E+02  0.83464355092E+02 -0.11586350429E+04  0.11645323512E+04  0.81251820057E+02 0.  0.
          6    2    1    2  501    0  0.14532499560E+02 -0.44093631619E+02 -0.13427395992E+04  0.13544515235E+04  0.17156298073E+03 0.  0.
         24    2    5    5    0    0 -0.32377455939E+02 -0.14195899309E+01 -0.40340209826E+03  0.41296405760E+03  0.82193339793E+02 0.  0.
          5    1    5    5  501    0  0.46909955500E+02 -0.42674041688E+02 -0.93933750095E+03  0.94148746591E+03  0.47000000000E+01 0. -1.
        -11    1    6    6    0    0 -0.11878376894E+02  0.39477929911E+02 -0.22782309577E+03  0.23152314302E+03  0.00000000000E+00 0.  1.
         12    1    6    6    0    0 -0.20499079045E+02 -0.40897519842E+02 -0.17557900249E+03  0.18144091459E+03  0.00000000000E+00 0. -1.
         -5    1    3    3    0  503 -0.26033687368E+02 -0.39370723473E+02 -0.11359681374E+04  0.11369580054E+04  0.47000000000E+01 0.  1.
         13    1    4    4    0    0 -0.21845982246E+02  0.79409792260E+02 -0.89069511581E+03  0.89449480232E+03  0.00000000000E+00 0. -1.
        -14    1    4    4    0    0  0.33347170054E+02  0.40545628320E+01 -0.26793992714E+03  0.27003754884E+03  0.00000000000E+00 0.  1.
</event>
<event>
12    1  0.8297444E-002  0.2026345E+03  0.7818608E-02  0.1147998E+00
         21   -1    0    0  501  502  0.00000000000E+00  0.00000000000E+00  0.17261337413E+04  0.17261337413E+04  0.00000000000E+00 0. -1.
         21   -1    0    0  502  503 -0.00000000000E+00 -0.00000000000E+00 -0.34115105049E+02  0.34115105049E+02  0.00000000000E+00 0.  1.
         -6    2    1    2    0  503  0.48246288539E+02 -0.92498459960E+02  0.13395098091E+04  0.13547498929E+04  0.17371549759E+03 0.  0.
        -24    2    3    3    0    0  0.32622628530E+02 -0.99497081260E+02  0.13258078768E+04  0.13323241844E+04  0.79732684912E+02 0.  0.
          6    2    1    2  501    0 -0.48246288539E+02  0.92498459960E+02  0.35250882713E+03  0.40549895346E+03  0.17112351854E+03 0.  0.
         24    2    5    5    0    0 -0.98575798283E+01  0.11250594053E+03  0.17439434075E+03  0.22213905465E+03  0.78597805168E+02 0.  0.
          5    1    5    5  501    0 -0.38388708711E+02 -0.20007480571E+02  0.17811448638E+03  0.18335989882E+03  0.47000000000E+01 0. -1.
        -11    1    6    6    0    0 -0.42809389610E+02  0.82549994750E+02  0.12125245983E+03  0.15280479210E+03  0.00000000000E+00 0.  1.
         12    1    6    6    0    0  0.32951809782E+02  0.29955945782E+02  0.53141880922E+02  0.69334262551E+02  0.00000000000E+00 0. -1.
         -5    1    3    3    0  503  0.15623660009E+02  0.69986213001E+01  0.13701932296E+02  0.22425708480E+02  0.47000000000E+01 0.  1.
         11    1    4    4    0    0  0.52331047425E+02 -0.98875533557E+02  0.11183326969E+04  0.11239141117E+04  0.00000000000E+00 0. -1.
        -12    1    4    4    0    0 -0.19708418894E+02 -0.62154770388E+00  0.20747517994E+03  0.20841007266E+03  0.00000000000E+00 0.  1.
</event>
<event>
12    1  0.8297444E-002  0.1807632E+03  0.7818608E-02  0.1167125E+00
         21   -1    0    0  503  502  0.00000000000E+00  0.00000000000E+00  0.31126599378E+02  0.31126599378E+02  0.00000000000E+00 0.  1.
         21   -1    0    0  501  503 -0.00000000000E+00 -0.00000000000E+00 -0.12162756358E+04  0.12162756358E+04  0.00000000000E+00 0.  1.
          6    2    1    2  501    0 -0.32240656945E+02 -0.41331510287E+02 -0.82398135695E+03  0.84352425992E+03  0.17274300788E+03 0.  0.
         24    2    3    3    0    0 -0.71866773739E+02 -0.18573918626E+02 -0.73998209481E+03  0.74778449206E+03  0.78091755655E+02 0.  0.
         -6    2    1    2    0  502  0.32240656945E+02  0.41331510287E+02 -0.36116767943E+03  0.40387797521E+03  0.17299587422E+03 0.  0.
        -24    2    5    5    0    0  0.82593924899E+02  0.45839422319E+02 -0.30175586298E+03  0.32572666813E+03  0.78219258645E+02 0.  0.
          5    1    3    3  501    0  0.39626116794E+02 -0.22757591661E+02 -0.83999262141E+02  0.95739767863E+02  0.47000000000E+01 0. -1.
        -13    1    4    4    0    0 -0.41975391335E+02 -0.41921648707E+02 -0.59401593319E+03  0.59697092642E+03  0.00000000000E+00 0.  1.
         14    1    4    4    0    0 -0.29891382404E+02  0.23347730081E+02 -0.14596616162E+03  0.15081356564E+03  0.00000000000E+00 0. -1.
         -5    1    5    5    0  502 -0.50353267954E+02 -0.45079120324E+01 -0.59411816450E+02  0.78151307081E+02  0.47000000000E+01 0.  1.
         11    1    6    6    0    0  0.29527051203E+02 -0.20917365248E+02 -0.70424886763E+02  0.79177317441E+02  0.00000000000E+00 0. -1.
        -12    1    6    6    0    0  0.53066873697E+02  0.66756787567E+02 -0.23133097621E+03  0.24654935069E+03  0.00000000000E+00 0.  1.
</event>
<event>
12    1  0.8297444E-002  0.1849499E+03  0.7818608E-02  0.1163156E+00
         21   -1    0    0  501  502  0.00000000000E+00  0.00000000000E+00  0.43685030744E+03  0.43685030744E+03  0.00000000000E+00 0. -1.
         21   -1    0    0  502  503 -0.00000000000E+00 -0.00000000000E+00 -0.11602943073E+03  0.11602943073E+03  0.00000000000E+00 0. -1.
         -6    2    1    2    0  503 -0.36974232202E+02 -0.55979843895E+02  0.31834081888E+03  0.36816754318E+03  0.17235320164E+03 0.  0.
        -24    2    3    3    0    0 -0.77316705138E+02 -0.40495497935E+02  0.13243499338E+03  0.17724780599E+03  0.79120155526E+02 0.  0.
          6    2    1    2  501    0  0.36974232202E+02  0.55979843895E+02  0.24800578292E+01  0.18471219500E+03  0.17208023572E+03 0.  0.
         24    2    5    5    0    0 -0.10518434021E+02 -0.23819449926E+02  0.29985124262E+02  0.87747772047E+02  0.78246790178E+02 0.  0.
          5    1    5    5  501    0  0.47492666223E+02  0.79799293821E+02 -0.27505066432E+02  0.96964422954E+02  0.47000000000E+01 0. -1.
        -11    1    6    6    0    0  0.13143014305E+02  0.11037098616E+01  0.47414339307E+02  0.49214597148E+02  0.00000000000E+00 0.  1.
         12    1    6    6    0    0 -0.23661448326E+02 -0.24923159787E+02 -0.17429215046E+02  0.38533174899E+02  0.00000000000E+00 0. -1.
         -5    1    3    3    0  503  0.40342472936E+02 -0.15484345960E+02  0.18590582550E+03  0.19091973719E+03  0.47000000000E+01 0.  1.
         11    1    4    4    0    0 -0.88691955297E+02 -0.21390220284E+02  0.12287932451E+03  0.15304617882E+03  0.00000000000E+00 0. -1.
        -12    1    4    4    0    0  0.11375250159E+02 -0.19105277651E+02  0.95556688673E+01  0.24201627172E+02  0.00000000000E+00 0.  1.
</event>
<event>
12    1  0.8297444E-002  0.2163270E+03  0.7818608E-02  0.1136740E+00
         21   -1    0    0  503  502  0.00000000000E+00  0.00000000000E+00  0.14761660137E+03  0.14761660137E+03  0.00000000000E+00 0.  1.
         21   -1    0    0  501  503 -0.00000000000E+00 -0.00000000000E+00 -0.32054184653E+03  0.32054184653E+03  0.00000000000E+00 0.  1.
          6    2    1    2  501    0  0.88755309412E+02 -0.97329425052E+02 -0.11334661977E+03  0.24422287892E+03  0.17160080549E+03 0.  0.
         24    2    3    3    0    0  0.46022511931E+02 -0.12533019342E+03 -0.48218960008E+02  0.16131427215E+03  0.76625696138E+02 0.  0.
         -6    2    1    2    0  502 -0.88755309412E+02  0.97329425052E+02 -0.59578625390E+02  0.22393556897E+03  0.17101755617E+03 0.  0.
        -24    2    5    5    0    0 -0.10518234711E+03  0.60203694206E+02  0.41341411741E+00  0.15134560918E+03  0.90650491269E+02 0.  0.
          5    1    3    3  501    0  0.42732797481E+02  0.28000768371E+02 -0.65127659766E+02  0.82908606769E+02  0.47000000000E+01 0. -1.
        -13    1    4    4    0    0  0.57826918618E+02 -0.12877942594E+03 -0.40770447174E+02  0.14693645710E+03  0.00000000000E+00 0.  1.
         14    1    4    4    0    0 -0.11804406687E+02  0.34492325207E+01 -0.74485128337E+01  0.14377815052E+02  0.00000000000E+00 0. -1.
         -5    1    5    5    0  502  0.16427037697E+02  0.37125730847E+02 -0.59992039508E+02  0.72589959793E+02  0.47000000000E+01 0.  1.
         13    1    6    6    0    0 -0.61046566338E+02 -0.12576268515E+02  0.17049093856E+02  0.64618243497E+02  0.00000000000E+00 0. -1.
        -14    1    6    6    0    0 -0.44135780772E+02  0.72779962720E+02 -0.16635679739E+02  0.86727365683E+02  0.00000000000E+00 0.  1.
</event>
<event>
12    1  0.8297444E-002  0.1947081E+03  0.7818608E-02  0.1154294E+00
         21   -1    0    0  501  502  0.00000000000E+00  0.00000000000E+00  0.75380918198E+03  0.75380918198E+03  0.00000000000E+00 0.  1.
         21   -1    0    0  502  503 -0.00000000000E+00 -0.00000000000E+00 -0.60458003465E+02  0.60458003465E+02  0.00000000000E+00 0.  1.
         -6    2    1    2    0  503 -0.63183551362E+02 -0.63681393635E+02  0.17965688485E+03  0.26492990103E+03  0.17281138599E+03 0.  0.
        -24    2    3    3    0    0 -0.65790993194E+02 -0.56862865743E+02  0.36988911055E+02  0.12199798779E+03  0.77158856896E+02 0.  0.
          6    2    1    2  501    0  0.63183551362E+02  0.63681393635E+02  0.51369429367E+03  0.54933728442E+03  0.17274878769E+03 0.  0.
         24    2    5    5    0    0  0.31273261369E+02 -0.31092414479E+02  0.31137930413E+03  0.32360783064E+03  0.76290247710E+02 0.  0.
          5    1    5    5  501    0  0.31910289993E+02  0.94773808114E+02  0.20231498954E+03  0.22572945378E+03  0.47000000000E+01 0. -1.
        -11    1    6    6    0    0  0.23291330443E+02  0.21744065126E+02  0.79428568503E+02  0.85581469586E+02  0.00000000000E+00 0.  1.
         12    1    6    6    0    0  0.79819309253E+01 -0.52836479605E+02  0.23195073563E+03  0.23802636106E+03  0.00000000000E+00 0. -1.
         -5    1    3    3    0  503  0.26074418322E+01 -0.68185278920E+01  0.14266797380E+03  0.14293191324E+03  0.47000000000E+01 0.  1.
         11    1    4    4    0    0  0.11066614959E+02 -0.31360452401E+02  0.21362149613E+02  0.39525806476E+02  0.00000000000E+00 0. -1.
        -12    1    4    4    0    0 -0.76857608153E+02 -0.25502413342E+02  0.15626761441E+02  0.82472181312E+02  0.00000000000E+00 0.  1.
</event>
<event>
12    1  0.8297444E-002  0.2003030E+03  0.7818608E-02  0.1150237E+00
         21   -1    0    0  503  502  0.00000000000E+00  0.00000000000E+00  0.13727948509E+03  0.13727948509E+03  0.00000000000E+00 0. -1.
         21   -1    0    0  501  503 -0.00000000000E+00 -0.00000000000E+00 -0.29685070065E+03  0.29685070065E+03  0.00000000000E+00 0. -1.
          6    2    1    2  501    0  0.46242388853E+02 -0.92642301434E+02 -0.39775597439E+02  0.20073719456E+03  0.16730920054E+03 0.  0.
         24    2    3    3    0    0 -0.59067168986E+01 -0.96952242852E+02 -0.65727505544E+02  0.14213944409E+03  0.80304980428E+02 0.  0.
         -6    2    1    2    0  502 -0.46242388853E+02  0.92642301434E+02 -0.11979561812E+03  0.23339299119E+03  0.17146528417E+03 0.  0.
        -24    2    5    5    0    0  0.34081394059E+02  0.74456152198E+02 -0.45612348826E+02  0.12245204488E+03  0.78795665542E+02 0.  0.
          5    1    3    3  501    0  0.52149105752E+02  0.43099414177E+01  0.25951908105E+02  0.58597750469E+02  0.47000000000E+01 0. -1.
        -11    1    4    4    0    0 -0.24970050812E+02 -0.55252384748E+02  0.16332316461E+01  0.60654735211E+02  0.00000000000E+00 0.  1.
         12    1    4    4    0    0  0.19063333913E+02 -0.41699858104E+02 -0.67360737190E+02  0.81484708875E+02  0.00000000000E+00 0. -1.
         -5    1    5    5    0  502 -0.80323782913E+02  0.18186149237E+02 -0.74183269296E+02  0.11094094631E+03  0.47000000000E+01 0.  1.
         13    1    6    6    0    0 -0.19618536737E+02  0.51612495055E+02 -0.20063867530E+02  0.58747726847E+02  0.00000000000E+00 0. -1.
        -14    1    6    6    0    0  0.53699930796E+02  0.22843657143E+02 -0.25548481296E+02  0.63704318031E+02  0.00000000000E+00 0.  1.
</event>
<event>
12    1  0.8297444E-002  0.1753389E+03  0.7818608E-02  0.1172640E+00
         21   -1    0    0  501  502  0.00000000000E+00  0.00000000000E+00  0.15543919987E+04  0.15543919987E+04  0.00000000000E+00 0. -1.
         21   -1    0    0  502  503 -0.00000000000E+00 -0.00000000000E+00 -0.23061496598E+02  0.23061496598E+02  0.00000000000E+00 0. -1.
         -6    2    1    2    0  503  0.31487007328E+02 -0.21181247843E+00  0.10700925313E+04  0.10843623689E+04  0.17248839104E+03 0.  0.
        -24    2    3    3    0    0  0.14131121406E+01 -0.46233027513E+02  0.33298662209E+03  0.34519418587E+03  0.78354615372E+02 0.  0.
          6    2    1    2  501    0 -0.31487007328E+02  0.21181247843E+00  0.46123797083E+03  0.49309112643E+03  0.17148445041E+03 0.  0.
         24    2    5    5    0    0 -0.46962925912E+02  0.58222270756E+02  0.25362969343E+03  0.27692451437E+03  0.82242422420E+02 0.  0.
          5    1    5    5  501    0  0.15475918584E+02 -0.58010458277E+02  0.20760827740E+03  0.21616661207E+03  0.47000000000E+01 0. -1.
        -11    1    6    6    0    0 -0.23252846912E+02  0.34796245818E+02  0.23508671451E+03  0.23878282382E+03  0.00000000000E+00 0.  1.
         12    1    6    6    0    0 -0.23710079000E+02  0.23426024937E+02  0.18542978922E+02  0.38141690548E+02  0.00000000000E+00 0. -1.
         -5    1    3    3    0  503  0.30073895187E+02  0.46021215035E+02  0.73710590921E+03  0.73916818302E+03  0.47000000000E+01 0.  1.
         11    1    4    4    0    0  0.20067784561E+02  0.15644073631E+02  0.11756015264E+03  0.12028234495E+03  0.00000000000E+00 0. -1.
        -12    1    4    4    0    0 -0.18654672420E+02 -0.61877101145E+02  0.21542646945E+03  0.22491184092E+03  0.00000000000E+00 0.  1.
</event>
<event>
12    1  0.8297444E-002  0.2145579E+03  0.7818608E-02  0.1138113E+00
         21   -1    0    0  503  502  0.00000000000E+00  0.00000000000E+00  0.12300954104E+04  0.12300954104E+04  0.00000000000E+00 0. -1.
         21   -1    0    0  501  503 -0.00000000000E+00 -0.00000000000E+00 -0.42705129113E+02  0.42705129113E+02  0.00000000000E+00 0. -1.
          6    2    1    2  501    0  0.12638291522E+03  0.17621826217E+02  0.36853517521E+03  0.42644255505E+03  0.17248741222E+03 0.  0.
         24    2    3    3    0    0  0.11485584145E+03  0.66927548928E+02  0.21173600421E+03  0.26160324619E+03  0.77025721778E+02 0.  0.
         -6    2    1    2    0  502 -0.12638291522E+03 -0.17621826217E+02  0.81885510612E+03  0.84635798450E+03  0.17179925232E+03 0.  0.
        -24    2    5    5    0    0 -0.50333216811E+02 -0.43290884017E+02  0.22259383212E+03  0.24470022961E+03  0.76958787141E+02 0.  0.
          5    1    3    3  501    0  0.11527073765E+02 -0.49305722711E+02  0.15679917100E+03  0.16483930887E+03  0.47000000000E+01 0. -1.
        -11    1    4    4    0    0  0.49823379763E+02  0.56546242655E+02  0.16330444919E+03  0.17985602535E+03  0.00000000000E+00 0.  1.
         12    1    4    4    0    0  0.65032461687E+02  0.10381306272E+02  0.48431555026E+02  0.81747220842E+02  0.00000000000E+00 0. -1.
         -5    1    5    5    0  502 -0.76049698404E+02  0.25669057800E+02  0.59626127399E+03  0.60165775489E+03  0.47000000000E+01 0.  1.
         11    1    6    6    0    0 -0.69483205593E+02 -0.25415717644E+02  0.18108839693E+03  0.19561922723E+03  0.00000000000E+00 0. -1.
        -12    1    6    6    0    0  0.19149988781E+02 -0.17875166373E+02  0.41505435198E+02  0.49081002376E+02  0.00000000000E+00 0.  1.
</event>
<event>
12    1  0.8297444E-002  0.1750810E+03  0.7818608E-02  0.1173239E+00
         21   -1    0    0  503  502  0.00000000000E+00  0.00000000000E+00  0.31744333336E+03  0.31744333336E+03  0.00000000000E+00 0.  1.
         21   -1    0    0  501  503 -0.00000000000E+00 -0.00000000000E+00 -0.14769547168E+03  0.14769547168E+03  0.00000000000E+00 0.  1.
          6    2    1    2  501    0 -0.11161232924E+02  0.84845526567E+01 -0.53300947114E+02  0.18301459391E+03  0.17451873786E+03 0.  0.
         24    2    3    3    0    0 -0.72328300180E+02 -0.13654273357E+02 -0.44003031700E+02  0.11713531822E+03  0.79790938004E+02 0.  0.
         -6    2    1    2    0  502  0.11161232924E+02 -0.84845526567E+01  0.22304880879E+03  0.28212421114E+03  0.17218228321E+03 0.  0.
        -24    2    5    5    0    0 -0.45300675789E+02 -0.73011860928E+01  0.60423414071E+02  0.10990790383E+03  0.79519178894E+02 0.  0.
          5    1    3    3  501    0  0.61167067256E+02  0.22138826014E+02 -0.92979154137E+01  0.65879275687E+02  0.47000000000E+01 0. -1.
        -11    1    4    4    0    0 -0.71791168671E+02 -0.33365680473E+02 -0.53196495785E+02  0.95378759147E+02  0.00000000000E+00 0.  1.
         12    1    4    4    0    0 -0.53713150892E+00  0.19711407116E+02  0.91934640852E+01  0.21756559071E+02  0.00000000000E+00 0. -1.
         -5    1    5    5    0  502  0.56461908713E+02 -0.11833665639E+01  0.16262539472E+03  0.17221630730E+03  0.47000000000E+01 0.  1.
         11    1    6    6    0    0  0.10463540048E+02 -0.78562382863E+01 -0.12506202630E+02  0.18100034656E+02  0.00000000000E+00 0. -1.
        -12    1    6    6    0    0 -0.55764215838E+02  0.55505219348E+00  0.72929616701E+02  0.91807869178E+02  0.00000000000E+00 0.  1.
</event>
<event>
12    1  0.8297444E-002  0.2770140E+03  0.7818608E-02  0.1098190E+00
         21   -1    0    0  501  502  0.00000000000E+00  0.00000000000E+00  0.23774871332E+04  0.23774871332E+04  0.00000000000E+00 0.  1.
         21   -1    0    0  502  503 -0.00000000000E+00 -0.00000000000E+00 -0.32097060442E+02  0.32097060442E+02  0.00000000000E+00 0.  1.
         -6    2    1    2    0  503 -0.11121069905E+03  0.18712522716E+03  0.10048177608E+04  0.10406901530E+04  0.16122528268E+03 0.  0.
        -24    2    3    3    0    0 -0.12326768530E+03  0.89507513956E+02  0.66814551404E+03  0.68991261576E+03  0.79714943147E+02 0.  0.
          6    2    1    2  501    0  0.11121069905E+03 -0.18712522716E+03  0.13405723119E+04  0.13688940407E+04  0.17132746677E+03 0.  0.
         24    2    5    5    0    0  0.65567731562E+02 -0.11961260804E+03  0.11645598808E+04  0.11748741960E+04  0.74319290936E+02 0.  0.
          5    1    5    5  501    0  0.45642967487E+02 -0.67512619121E+02  0.17601243113E+03  0.19401984469E+03  0.47000000000E+01 0. -1.
        -13    1    6    6    0    0  0.30868340693E+02 -0.49897898494E+02  0.24110246588E+03  0.24813918228E+03  0.00000000000E+00 0.  1.
         14    1    6    6    0    0  0.34699390869E+02 -0.69714709545E+02  0.92345741492E+03  0.92673501370E+03  0.00000000000E+00 0. -1.
         -5    1    3    3    0  503  0.12056986246E+02  0.97617713204E+02  0.33667224678E+03  0.35077753720E+03  0.47000000000E+01 0.  1.
         11    1    4    4    0    0 -0.25501184677E+02 -0.12467779888E+02  0.75432613933E+02  0.80596744351E+02  0.00000000000E+00 0. -1.
        -12    1    4    4    0    0 -0.97766500618E+02  0.10197529384E+03  0.59271290011E+03  0.60931587141E+03  0.00000000000E+00 0.  1.
</event>
<event>
12    1  0.8297444E-002  0.3103685E+03  0.7818608E-02  0.1080344E+00
         21   -1    0    0  503  502  0.00000000000E+00  0.00000000000E+00  0.77948186816E+02  0.77948186816E+02  0.00000000000E+00 0. -1.
         21   -1    0    0  501  503 -0.00000000000E+00 -0.00000000000E+00 -0.14245752710E+04  0.14245752710E+04  0.00000000000E+00 0.  1.
          6    2    1    2  501    0  0.15004746306E+03 -0.20883545298E+03 -0.94958838992E+03  0.99857072884E+03  0.17116922220E+03 0.  0.
         24    2    3    3    0    0  0.13589816387E+03 -0.23034234620E+03 -0.81051824249E+03  0.85705979276E+03  0.78011278430E+02 0.  0.
         -6    2    1    2    0  502 -0.15004746306E+03  0.20883545298E+03 -0.39703869422E+03  0.50395272893E+03  0.17378763102E+03 0.  0.
        -24    2    5    5    0    0 -0.64877916574E+02  0.58216864622E+02 -0.78564657273E+02  0.14147843603E+03  0.79027812210E+02 0.  0.
          5    1    3    3  501    0  0.14149299193E+02  0.21506893217E+02 -0.13907014744E+03  0.14151093609E+03  0.47000000000E+01 0. -1.
        -11    1    4    4    0    0  0.59217904224E+01 -0.71873172257E+02 -0.17381204098E+03  0.18817929238E+03  0.00000000000E+00 0.  1.
         12    1    4    4    0    0  0.12997637345E+03 -0.15846917394E+03 -0.63670620151E+03  0.66888050038E+03  0.00000000000E+00 0. -1.
         -5    1    5    5    0  502 -0.85169546487E+02  0.15061858836E+03 -0.31847403695E+03  0.36247429291E+03  0.47000000000E+01 0.  1.
         11    1    6    6    0    0 -0.58762463472E+02  0.49443964887E+02 -0.94821311431E+02  0.12201972742E+03  0.00000000000E+00 0. -1.
        -12    1    6    6    0    0 -0.61154531020E+01  0.87728997348E+01  0.16256654158E+02  0.19458708611E+02  0.00000000000E+00 0.  1.
</event>
<event>
12    1  0.8297444E-002  0.2044642E+03  0.7818608E-02  0.1148149E+00
         21   -1    0    0  501  502  0.00000000000E+00  0.00000000000E+00  0.21148404517E+02  0.21148404517E+02  0.00000000000E+00 0.  1.
         21   -1    0    0  502  503 -0.00000000000E+00 -0.00000000000E+00 -0.25561759782E+04  0.25561759782E+04  0.00000000000E+00 0. -1.
         -6    2    1    2    0  503  0.71307658759E+02 -0.52209554112E+02 -0.19063201285E+04  0.19162051476E+04  0.17313323095E+03 0.  0.
        -24    2    3    3    0    0  0.11588877239E+02  0.28538494524E+02 -0.11643580292E+04  0.11674619159E+04  0.79302945596E+02 0.  0.
          6    2    1    2  501    0 -0.71307658759E+02  0.52209554112E+02 -0.62870744519E+03  0.66111923511E+03  0.18437725365E+03 0.  0.
         24    2    5    5    0    0 -0.67401953856E+02  0.41240832994E+02 -0.63655652662E+03  0.64631162041E+03  0.79187558388E+02 0.  0.
          5    1    5    5  501    0 -0.39057049038E+01  0.10968721118E+02  0.78490814352E+01  0.14807614701E+02  0.47000000000E+01 0. -1.
        -11    1    6    6    0    0 -0.16288404697E+02 -0.19128747421E+02 -0.72373939496E+02  0.76610757885E+02  0.00000000000E+00 0.  1.
         12    1    6    6    0    0 -0.51113549158E+02  0.60369580415E+02 -0.56418258713E+03  0.56970086253E+03  0.00000000000E+00 0. -1.
         -5    1    3    3    0  503  0.59718781520E+02 -0.80748048636E+02 -0.74196209932E+03  0.74874323173E+03  0.47000000000E+01 0.  1.
         11    1    4    4    0    0  0.29179619333E+02 -0.47796596764E+01 -0.89426346241E+03  0.89475216431E+03  0.00000000000E+00 0. -1.
        -12    1    4    4    0    0 -0.17590742093E+02  0.33318154200E+02 -0.27009456674E+03  0.27270975155E+03  0.00000000000E+00 0.  1.
</event>
<event>
12    1  0.8297444E-002  0.2044954E+03  0.7818608E-02  0.1146441E+00
         21   -1    0    0  503  502  0.00000000000E+00  0.00000000000E+00  0.51058887000E+02  0.51058887000E+02  0.00000000000E+00 0. -1.
         21   -1    0    0  501  503 -0.00000000000E+00 -0.00000000000E+00 -0.84653168336E+03  0.84653168336E+03  0.00000000000E+00 0.  1.
          6    2    1    2  501    0 -0.85622254141E+02  0.65895174689E+02 -0.30313799964E+03  0.36447527784E+03  0.17110300079E+03 0.  0.
         24    2    3    3    0    0 -0.77311057496E+02  0.73380146871E+02 -0.31748004542E+03  0.34569004226E+03  0.85711029113E+02 0.  0.
         -6    2    1    2    0  502  0.85622254141E+02 -0.65895174689E+02 -0.49233479672E+03  0.53311529252E+03  0.17362320872E+03 0.  0.
        -24    2    5    5    0    0  0.16275657728E-01 -0.81487240865E+02 -0.30731878453E+03  0.32860487506E+03  0.83043108709E+02 0.  0.
          5    1    3    3  501    0 -0.83111966456E+01 -0.74849721825E+01  0.14342045787E+02  0.18785235575E+02  0.47000000000E+01 0. -1.
        -13    1    4    4    0    0 -0.63067567378E+02  0.92702956395E+02 -0.27339332377E+03  0.29549156615E+03  0.00000000000E+00 0.  1.
         14    1    4    4    0    0 -0.14243490118E+02 -0.19322809524E+02 -0.44086721651E+02  0.50198476118E+02  0.00000000000E+00 0. -1.
         -5    1    5    5    0  502  0.85605978484E+02  0.15592066177E+02 -0.18501601220E+03  0.20451041746E+03  0.47000000000E+01 0.  1.
         11    1    6    6    0    0 -0.92734525524E+00  0.14655030840E+02 -0.15483274440E+02  0.21339205363E+02  0.00000000000E+00 0. -1.
        -12    1    6    6    0    0  0.94362091297E+00 -0.96142271705E+02 -0.29183551009E+03  0.30726566970E+03  0.00000000000E+00 0.  1.
</event>
<event>
12    1  0.8297444E-002  0.2073782E+03  0.7818608E-02  0.1144041E+00
         21   -1    0    0  503  502  0.00000000000E+00  0.00000000000E+00  0.74532142067E+02  0.74532142067E+02  0.00000000000E+00 0. -1.
         21   -1    0    0  501  503 -0.00000000000E+00 -0.00000000000E+00 -0.71377941313E+03  0.71377941313E+03  0.00000000000E+00 0.  1.
          6    2    1    2  501    0 -0.36708980102E+02  0.11337436468E+03 -0.49426321295E+03  0.53527774994E+03  0.16740624276E+03 0.  0.
         24    2    3    3    0    0 -0.57421630258E+02  0.11994976165E+03 -0.48673667258E+03  0.51180460503E+03  0.85709838178E+02 0.  0.
         -6    2    1    2    0  502  0.36708980102E+02 -0.11337436468E+03 -0.14498405811E+03  0.25303380526E+03  0.16971868993E+03 0.  0.
        -24    2    5    5    0    0  0.44695856927E+02 -0.13484216658E+03 -0.15795089379E+03  0.22629646157E+03  0.77983806985E+02 0.  0.
          5    1    3    3  501    0  0.20712650156E+02 -0.65753969632E+01 -0.75265403731E+01  0.23473144904E+02  0.47000000000E+01 0. -1.
        -11    1    4    4    0    0 -0.24506497791E+02  0.11870460714E+03 -0.42349726797E+03  0.44050117839E+03  0.00000000000E+00 0.  1.
         12    1    4    4    0    0 -0.32915132467E+02  0.12451545057E+01 -0.63239404614E+02  0.71303426643E+02  0.00000000000E+00 0. -1.
         -5    1    5    5    0  502 -0.79868768253E+01  0.21467801902E+02  0.12966835685E+02  0.26737343690E+02  0.47000000000E+01 0.  1.
         11    1    6    6    0    0  0.11541889295E+02 -0.62109412558E+02 -0.18953775447E+02  0.65954832579E+02  0.00000000000E+00 0. -1.
        -12    1    6    6    0    0  0.33153967632E+02 -0.72732754026E+02 -0.13899711835E+03  0.16034162899E+03  0.00000000000E+00 0.  1.
</event>
<event>
12    1  0.8297444E-002  0.2126273E+03  0.7818608E-02  0.1139624E+00
         21   -1    0    0  503  502  0.00000000000E+00  0.00000000000E+00  0.12708399548E+03  0.12708399548E+03  0.00000000000E+00 0. -1.
         21   -1    0    0  501  503 -0.00000000000E+00 -0.00000000000E+00 -0.57000956378E+03  0.57000956378E+03  0.00000000000E+00 0. -1.
          6    2    1    2  501    0  0.29304565479E+02  0.12042736456E+03 -0.43547239696E+03  0.48433563162E+03  0.17199792980E+03 0.  0.
         24    2    3    3    0    0  0.73878240848E+02  0.11070760065E+03 -0.25918559211E+03  0.30218071429E+03  0.80136418805E+02 0.  0.
         -6    2    1    2    0  502 -0.29304565479E+02 -0.12042736456E+03 -0.74531713428E+01  0.21275792763E+03  0.17276827925E+03 0.  0.
        -24    2    5    5    0    0 -0.72414785821E+02 -0.12637673243E+03  0.55007322161E+01  0.16710949180E+03  0.81733374404E+02 0.  0.
          5    1    3    3  501    0 -0.44573675369E+02  0.97197639123E+01 -0.17628680484E+03  0.18215491733E+03  0.47000000000E+01 0. -1.
        -13    1    4    4    0    0  0.31097145932E+02  0.35577457046E+02 -0.27003127118E+02  0.54423862497E+02  0.00000000000E+00 0.  1.
         14    1    4    4    0    0  0.42781094917E+02  0.75130143600E+02 -0.23218246500E+03  0.24775685180E+03  0.00000000000E+00 0. -1.
         -5    1    5    5    0  502  0.43110220342E+02  0.59493678683E+01 -0.12953903559E+02  0.45648435826E+02  0.47000000000E+01 0.  1.
         13    1    6    6    0    0 -0.40509287087E+02 -0.79910357043E+02  0.43033612681E+02  0.99390941858E+02  0.00000000000E+00 0. -1.
        -14    1    6    6    0    0 -0.31905498734E+02 -0.46466375383E+02 -0.37532880464E+02  0.67718549945E+02  0.00000000000E+00 0.  1.
</event>
<event>
12    1  0.8297444E-002  0.3271134E+03  0.7818608E-02  0.1072491E+00
         21   -1    0    0  503  502  0.00000000000E+00  0.00000000000E+00  0.13672346391E+03  0.13672346391E+03  0.00000000000E+00 0. -1.
         21   -1    0    0  501  503 -0.00000000000E+00 -0.00000000000E+00 -0.96048168036E+03  0.96048168036E+03  0.00000000000E+00 0.  1.
          6    2    1    2  501    0  0.20594320923E+03  0.18563414753E+03 -0.17513914780E+03  0.37104839296E+03  0.17358152744E+03 0.  0.
         24    2    3    3    0    0  0.21249546369E+03  0.11250447764E+03 -0.13477915040E+03  0.28713236322E+03  0.80423846273E+02 0.  0.
         -6    2    1    2    0  502 -0.20594320923E+03 -0.18563414753E+03 -0.64861906865E+03  0.72615675131E+03  0.17240733485E+03 0.  0.
        -24    2    5    5    0    0 -0.54706276855E+02 -0.72379670110E+02 -0.14254925323E+03  0.18594574213E+03  0.77614019653E+02 0.  0.
          5    1    3    3  501    0 -0.65522544586E+01  0.73129669888E+02 -0.40359997397E+02  0.83916029734E+02  0.47000000000E+01 0. -1.
        -13    1    4    4    0    0  0.13654565725E+03  0.10085952324E+03 -0.60371933085E+02  0.18017250136E+03  0.00000000000E+00 0.  1.
         14    1    4    4    0    0  0.75949806442E+02  0.11644954403E+02 -0.74407217317E+02  0.10695986187E+03  0.00000000000E+00 0. -1.
         -5    1    5    5    0  502 -0.15123693238E+03 -0.11325447742E+03 -0.50606981542E+03  0.54021100919E+03  0.47000000000E+01 0.  1.
         13    1    6    6    0    0 -0.61292202866E+02 -0.73673080356E+02 -0.14865694664E+03  0.17687098316E+03  0.00000000000E+00 0. -1.
        -14    1    6    6    0    0  0.65859260112E+01  0.12934102461E+01  0.61076934089E+01  0.90747589647E+01  0.00000000000E+00 0.  1.
</event>
<event>
12    1  0.8297444E-002  0.1728449E+03  0.7818608E-02  0.1175018E+00
         21   -1    0    0  501  502  0.00000000000E+00  0.00000000000E+00  0.78818464648E+03  0.78818464648E+03  0.00000000000E+00 0.  1.
         21   -1    0    0  502  503 -0.00000000000E+00 -0.00000000000E+00 -0.79552691436E+02  0.79552691436E+02  0.00000000000E+00 0.  1.
         -6    2    1    2    0  503  0.72857221687E+01  0.30835936851E+01  0.39846095722E+02  0.17697696574E+03  0.17225139988E+03 0.  0.
        -24    2    3    3    0    0  0.70152198891E+02  0.15999933874E+02  0.17062790521E+02  0.10871134676E+03  0.79684937097E+02 0.  0.
          6    2    1    2  501    0 -0.72857221687E+01 -0.30835936851E+01  0.66878585933E+03  0.69076037218E+03  0.17266376528E+03 0.  0.
         24    2    5    5    0    0 -0.67086808167E+02 -0.29744645099E+02  0.41577515970E+03  0.42937275641E+03  0.78144716949E+02 0.  0.
          5    1    5    5  501    0  0.59801085998E+02  0.26661051414E+02  0.25301069963E+03  0.26138761577E+03  0.47000000000E+01 0. -1.
        -11    1    6    6    0    0  0.13894105844E+02 -0.46354891075E+01  0.21048126831E+02  0.25642885554E+02  0.00000000000E+00 0.  1.
         12    1    6    6    0    0 -0.80980914011E+02 -0.25109155992E+02  0.39472703287E+03  0.40372987086E+03  0.00000000000E+00 0. -1.
         -5    1    3    3    0  503 -0.62866476722E+02 -0.12916340189E+02  0.22783305200E+02  0.68265618983E+02  0.47000000000E+01 0.  1.
         13    1    4    4    0    0 -0.34475059240E+01 -0.22447420263E+02  0.11583050411E+02  0.25493901827E+02  0.00000000000E+00 0. -1.
        -14    1    4    4    0    0  0.73599704815E+02  0.38447354137E+02  0.54797401106E+01  0.83217444930E+02  0.00000000000E+00 0.  1.
</event>
<event>
12    1  0.8297444E-002  0.2011263E+03  0.7818608E-02  0.1148800E+00
         21   -1    0    0  501  502  0.00000000000E+00  0.00000000000E+00  0.12736985599E+03  0.12736985599E+03  0.00000000000E+00 0.  1.
         21   -1    0    0  502  503 -0.00000000000E+00 -0.00000000000E+00 -0.57424576760E+03  0.57424576760E+03  0.00000000000E+00 0.  1.
         -6    2    1    2    0  503 -0.99343428608E+02  0.32240832589E+02 -0.45800327799E+03  0.50021873293E+03  0.17188132542E+03 0.  0.
        -24    2    3    3    0    0 -0.13937686285E+02 -0.36964295597E+02 -0.23105393613E+03  0.24800536223E+03  0.80994567992E+02 0.  0.
          6    2    1    2  501    0  0.99343428608E+02 -0.32240832589E+02  0.11127366389E+02  0.20139689066E+03  0.17183800858E+03 0.  0.
         24    2    5    5    0    0  0.13938953704E+02  0.10347895090E+02  0.41878624927E+02  0.10102032985E+03  0.90276876629E+02 0.  0.
          5    1    5    5  501    0  0.85404474905E+02 -0.42588727679E+02 -0.30751258539E+02  0.10037656081E+03  0.47000000000E+01 0. -1.
        -11    1    6    6    0    0  0.17462956260E+02  0.57537198288E+01  0.69966413500E+02  0.72341959825E+02  0.00000000000E+00 0.  1.
         12    1    6    6    0    0 -0.35240025562E+01  0.45941752615E+01 -0.28087788573E+02  0.28678370024E+02  0.00000000000E+00 0. -1.
         -5    1    3    3    0  503 -0.85405742323E+02  0.69205128186E+02 -0.22694934186E+03  0.25221337070E+03  0.47000000000E+01 0.  1.
         11    1    4    4    0    0  0.19125022300E+02  0.94245731709E+01 -0.19422995488E+02  0.28841667968E+02  0.00000000000E+00 0. -1.
        -12    1    4    4    0    0 -0.33062708585E+02 -0.46388868768E+02 -0.21163094064E+03  0.21916369426E+03  0.00000000000E+00 0.  1.
</event>
<event>
12    1  0.8297444E-002  0.2326133E+03  0.7818608E-02  0.1125043E+00
         21   -1    0    0  503  502  0.00000000000E+00  0.00000000000E+00  0.25605284286E+03  0.25605284286E+03  0.00000000000E+00 0. -1.
         21   -1    0    0  501  503 -0.00000000000E+00 -0.00000000000E+00 -0.21706047803E+03  0.21706047803E+03  0.00000000000E+00 0.  1.
          6    2    1    2  501    0 -0.12360763216E+03 -0.92900656545E+02 -0.22843228322E+02  0.23242145652E+03  0.17201320198E+03 0.  0.
         24    2    3    3    0    0 -0.40428081618E+02  0.68089993966E+01 -0.37548173061E+02  0.10165762927E+03  0.85109435627E+02 0.  0.
         -6    2    1    2    0  502  0.12360763216E+03  0.92900656545E+02  0.61835593159E+02  0.24069186437E+03  0.17378018955E+03 0.  0.
        -24    2    5    5    0    0  0.11210482338E+03  0.18481786595E+02  0.78941469326E+02  0.16332789463E+03  0.86805401481E+02 0.  0.
          5    1    3    3  501    0 -0.83179550542E+02 -0.99709655941E+02  0.14704944739E+02  0.13076382725E+03  0.47000000000E+01 0. -1.
        -13    1    4    4    0    0 -0.45605988452E+02 -0.28122241865E+02 -0.53094429939E+01  0.53841961843E+02  0.00000000000E+00 0.  1.
         14    1    4    4    0    0  0.51779068335E+01  0.34931241262E+02 -0.32238730067E+02  0.47815667428E+02  0.00000000000E+00 0. -1.
         -5    1    5    5    0  502  0.11502808785E+02  0.74418869950E+02 -0.17105876168E+02  0.77363969741E+02  0.47000000000E+01 0.  1.
         11    1    6    6    0    0  0.85408210443E+02  0.51262710211E+02  0.64419955828E+02  0.11862697239E+03  0.00000000000E+00 0. -1.
        -12    1    6    6    0    0  0.26696612933E+02 -0.32780923617E+02  0.14521513498E+02  0.44700922244E+02  0.00000000000E+00 0.  1.
</event>
<event>
12    1  0.8297444E-002  0.3462527E+03  0.7818608E-02  0.1064191E+00
         21   -1    0    0  501  502  0.00000000000E+00  0.00000000000E+00  0.12871395889E+04  0.12871395889E+04  0.00000000000E+00 0. -1.
         21   -1    0    0  502  503 -0.00000000000E+00 -0.00000000000E+00 -0.23726261342E+03  0.23726261342E+03  0.00000000000E+00 0.  1.
         -6    2    1    2    0  503 -0.28910053664E+03  0.80179988095E+02 -0.69166419824E+02  0.35309335383E+03  0.17286692024E+03 0.  0.
        -24    2    3    3    0    0 -0.24037066022E+03  0.11759853610E+02 -0.16697925112E+02  0.25394221366E+03  0.79318842190E+02 0.  0.
          6    2    1    2  501    0  0.28910053664E+03 -0.80179988095E+02  0.11190433953E+04  0.11713088484E+04  0.17233208405E+03 0.  0.
         24    2    5    5    0    0  0.16745983943E+03  0.19308465821E+01  0.78190699600E+03  0.80358382877E+03  0.79510335658E+02 0.  0.
          5    1    5    5  501    0  0.12164069721E+03 -0.82110834677E+02  0.33713639926E+03  0.36772501967E+03  0.47000000000E+01 0. -1.
        -11    1    6    6    0    0  0.68206526917E+01 -0.21805380852E+02  0.86069938866E+02  0.89050717648E+02  0.00000000000E+00 0.  1.
         12    1    6    6    0    0  0.16063918674E+03  0.23736227434E+02  0.69583705714E+03  0.71453311112E+03  0.00000000000E+00 0. -1.
         -5    1    3    3    0  503 -0.48729876418E+02  0.68420134485E+02 -0.52468494712E+02  0.99151140165E+02  0.47000000000E+01 0.  1.
         11    1    4    4    0    0 -0.35576663239E+02 -0.21715560232E+02 -0.20383155595E+02  0.46397602906E+02  0.00000000000E+00 0. -1.
        -12    1    4    4    0    0 -0.20479399698E+03  0.33475413842E+02  0.36852304832E+01  0.20754461076E+03  0.00000000000E+00 0.  1.
</event>
<event>
12    1  0.8297444E-002  0.2114483E+03  0.7818608E-02  0.1140434E+00
         21   -1    0    0  501  502  0.00000000000E+00  0.00000000000E+00  0.30442239367E+03  0.30442239367E+03  0.00000000000E+00 0. -1.
         21   -1    0    0  502  503 -0.00000000000E+00 -0.00000000000E+00 -0.15643030700E+03  0.15643030700E+03  0.00000000000E+00 0.  1.
         -6    2    1    2    0  503  0.10165055531E+03  0.68720388666E+02  0.16934516346E+02  0.21212532319E+03  0.17220641010E+03 0.  0.
        -24    2    3    3    0    0  0.11192755382E+03 -0.13678772066E+01  0.27697917607E+02  0.14032057043E+03  0.79956484752E+02 0.  0.
          6    2    1    2  501    0 -0.10165055531E+03 -0.68720388666E+02  0.13105757032E+03  0.24872737749E+03  0.17214498064E+03 0.  0.
         24    2    5    5    0    0 -0.47924696155E+02 -0.10957392392E+03  0.97350656275E+02  0.17313818951E+03  0.78717603404E+02 0.  0.
          5    1    5    5  501    0 -0.53725859154E+02  0.40853535252E+02  0.33706914048E+02  0.75589187978E+02  0.47000000000E+01 0. -1.
        -13    1    6    6    0    0  0.65583373172E+01 -0.74495249035E+02  0.32754849634E+02  0.81642109794E+02  0.00000000000E+00 0.  1.
         14    1    6    6    0    0 -0.54483033473E+02 -0.35078674884E+02  0.64595806641E+02  0.91496079717E+02  0.00000000000E+00 0. -1.
         -5    1    3    3    0  503 -0.10276998515E+02  0.70088265873E+02 -0.10763401261E+02  0.71804752755E+02  0.47000000000E+01 0.  1.
         13    1    4    4    0    0  0.85935422216E+02  0.29730577060E+02 -0.52058141762E+00  0.90934454464E+02  0.00000000000E+00 0. -1.
        -14    1    4    4    0    0  0.25992131609E+02 -0.31098454267E+02  0.28218499025E+02  0.49386115970E+02  0.00000000000E+00 0.  1.
</event>
<event>
12    1  0.8297444E-002  0.2059433E+03  0.7818608E-02  0.1148016E+00
         21   -1    0    0  501  502  0.00000000000E+00  0.00000000000E+00  0.97894743562E+02  0.97894743562E+02  0.00000000000E+00 0. -1.
         21   -1    0    0  502  503 -0.00000000000E+00 -0.00000000000E+00 -0.47023443316E+03  0.47023443316E+03  0.00000000000E+00 0.  1.
         -6    2    1    2    0  503  0.49971701126E+02 -0.67157298891E+02 -0.28822178964E+03  0.34566910605E+03  0.17148777550E+03 0.  0.
        -24    2    3    3    0    0  0.42328520586E+02 -0.45738952149E+02 -0.60920062578E+02  0.11718425117E+03  0.78339895955E+02 0.  0.
          6    2    1    2  501    0 -0.49971701126E+02  0.67157298891E+02 -0.84117899961E+02  0.22246007068E+03  0.18816319577E+03 0.  0.
         24    2    5    5    0    0 -0.88011996787E+02  0.49080575390E+02 -0.91492713905E+00  0.12908632323E+03  0.80668626448E+02 0.  0.
          5    1    5    5  501    0  0.38040295661E+02  0.18076723501E+02 -0.83202972822E+02  0.93373747450E+02  0.47000000000E+01 0. -1.
        -11    1    6    6    0    0 -0.67315145122E+02 -0.67252492913E+01  0.10561837466E+02  0.68469775460E+02  0.00000000000E+00 0.  1.
         12    1    6    6    0    0 -0.20696851665E+02  0.55805824681E+02 -0.11476764605E+02  0.60616547766E+02  0.00000000000E+00 0. -1.
         -5    1    3    3    0  503  0.76431805404E+01 -0.21418346743E+02 -0.22730172706E+03  0.22848485488E+03  0.47000000000E+01 0.  1.
         13    1    4    4    0    0  0.61800442498E+02 -0.15074453825E+02 -0.35488857988E+02  0.72842246618E+02  0.00000000000E+00 0. -1.
        -14    1    4    4    0    0 -0.19471921913E+02 -0.30664498324E+02 -0.25431204590E+02  0.44342004547E+02  0.00000000000E+00 0.  1.
</event>
<event>
12    1  0.8297444E-002  0.1723776E+03  0.7818608E-02  0.1175441E+00
         21   -1    0    0  501  502  0.00000000000E+00  0.00000000000E+00  0.21533149541E+03  0.21533149541E+03  0.00000000000E+00 0.  1.
         21   -1    0    0  502  503 -0.00000000000E+00 -0.00000000000E+00 -0.13956170036E+03  0.13956170036E+03  0.00000000000E+00 0.  1.
         -6    2    1    2    0  503 -0.69339844730E+01 -0.19762794903E+02  0.57649783502E+02  0.18176231660E+03  0.17110053768E+03 0.  0.
        -24    2    3    3    0    0  0.41135031835E+02  0.23310452512E+02  0.71354835080E+02  0.11561208296E+03  0.77712117437E+02 0.  0.
          6    2    1    2  501    0  0.69339844730E+01  0.19762794903E+02  0.18120011554E+02  0.17313087918E+03  0.17090148713E+03 0.  0.
         24    2    5    5    0    0  0.38799091887E+02 -0.43702701652E+02  0.22699460877E+02  0.10181246865E+03  0.80219807941E+02 0.  0.
          5    1    5    5  501    0 -0.31865107414E+02  0.63465496555E+02 -0.45794493229E+01  0.71318410523E+02  0.47000000000E+01 0. -1.
        -13    1    6    6    0    0  0.30269985431E+02 -0.79256736443E+01  0.47909360205E+02  0.57222330571E+02  0.00000000000E+00 0.  1.
         14    1    6    6    0    0  0.85291064554E+01 -0.35777028007E+02 -0.25209899328E+02  0.44590138081E+02  0.00000000000E+00 0. -1.
         -5    1    3    3    0  503 -0.48069016308E+02 -0.43073247415E+02 -0.13705051578E+02  0.66150233639E+02  0.47000000000E+01 0.  1.
         11    1    4    4    0    0  0.21589384279E+02  0.51631776533E+02  0.37689142876E+02  0.67471574402E+02  0.00000000000E+00 0. -1.
        -12    1    4    4    0    0  0.19545647556E+02 -0.28321324021E+02  0.33665692204E+02  0.48140508558E+02  0.00000000000E+00 0.  1.
</event>
<event>
12    1  0.8297444E-002  0.2629307E+03  0.7818608E-02  0.1105458E+00
         21   -1    0    0  503  502  0.00000000000E+00  0.00000000000E+00  0.21280420459E+03  0.21280420459E+03  0.00000000000E+00 0.  1.
         21   -1    0    0  501  503 -0.00000000000E+00 -0.00000000000E+00 -0.33782236978E+03  0.33782236978E+03  0.00000000000E+00 0.  1.
          6    2    1    2  501    0  0.18587073329E+03  0.69386146572E+02 -0.74689720165E+01  0.26261548528E+03  0.17189747159E+03 0.  0.
         24    2    3    3    0    0  0.19935168581E+03  0.31593364357E+02  0.11777968735E+02  0.21786545515E+03  0.81162803651E+02 0.  0.
         -6    2    1    2    0  502 -0.18587073329E+03 -0.69386146572E+02 -0.11754919317E+03  0.28801108909E+03  0.17254045263E+03 0.  0.
        -24    2    5    5    0    0 -0.86079557676E+02 -0.37814080053E+02 -0.13347582730E+03  0.18203551743E+03  0.80508001044E+02 0.  0.
          5    1    3    3  501    0 -0.13480952518E+02  0.37792782216E+02 -0.19246940751E+02  0.44750030130E+02  0.47000000000E+01 0. -1.
        -13    1    4    4    0    0  0.21320559354E+02  0.17811212411E+02  0.26889587372E+02  0.38663360534E+02  0.00000000000E+00 0.  1.
         14    1    4    4    0    0  0.17803112645E+03  0.13782151946E+02 -0.15111618638E+02  0.17920209462E+03  0.00000000000E+00 0. -1.
         -5    1    5    5    0  502 -0.99791175613E+02 -0.31572066519E+02  0.15926634130E+02  0.10597557166E+03  0.47000000000E+01 0.  1.
         11    1    6    6    0    0 -0.56865294405E+02 -0.60534584102E+02 -0.70277575945E+02  0.10879813997E+03  0.00000000000E+00 0. -1.
        -12    1    6    6    0    0 -0.29214263272E+02  0.22720504049E+02 -0.63198251357E+02  0.73237377460E+02  0.00000000000E+00 0.  1.
</event>
<event>
12    1  0.8297444E-002  0.2184665E+03  0.7818608E-02  0.1135185E+00
         21   -1    0    0  503  502  0.00000000000E+00  0.00000000000E+00  0.25807511581E+03  0.25807511581E+03  0.00000000000E+00 0.  1.
         21   -1    0    0  501  503 -0.00000000000E+00 -0.00000000000E+00 -0.25251051788E+03  0.25251051788E+03  0.00000000000E+00 0.  1.
          6    2    1    2  501    0 -0.90531891400E+02 -0.99475986298E+02 -0.12995158962E+03  0.25419489786E+03  0.17215148923E+03 0.  0.
         24    2    3    3    0    0 -0.12945720649E+03 -0.75085954562E+02 -0.11708841454E+03  0.20626155794E+03  0.80231319187E+02 0.  0.
         -6    2    1    2    0  502  0.90531891400E+02  0.99475986298E+02  0.13551618755E+03  0.25639073582E+03  0.17111422243E+03 0.  0.
        -24    2    5    5    0    0 -0.13726258232E+02  0.69655103128E+02  0.52413835542E+02  0.11968982965E+03  0.80859146729E+02 0.  0.
          5    1    3    3  501    0  0.38925315093E+02 -0.24390031737E+02 -0.12863175084E+02  0.47933339926E+02  0.47000000000E+01 0. -1.
        -13    1    4    4    0    0 -0.34271717688E+02 -0.35487842387E+02 -0.85017009532E+02  0.98294605652E+02  0.00000000000E+00 0.  1.
         14    1    4    4    0    0 -0.95185488804E+02 -0.39598112174E+02 -0.32071405006E+02  0.10796695229E+03  0.00000000000E+00 0. -1.
         -5    1    5    5    0  502  0.10425814963E+03  0.29820883171E+02  0.83102352011E+02  0.13670090617E+03  0.47000000000E+01 0.  1.
         13    1    6    6    0    0 -0.13216760723E+02 -0.65711615690E+01  0.39769571303E+02  0.42420298561E+02  0.00000000000E+00 0. -1.
        -14    1    6    6    0    0 -0.50949750914E+00  0.76226264697E+02  0.12644264239E+02  0.77269531094E+02  0.00000000000E+00 0.  1.
</event>
<event>
12    1  0.8297444E-002  0.2397201E+03  0.7818608E-02  0.1121421E+00
         21   -1    0    0  501  502  0.00000000000E+00  0.00000000000E+00  0.36804248164E+03  0.36804248164E+03  0.00000000000E+00 0.  1.
         21   -1    0    0  502  503 -0.00000000000E+00 -0.00000000000E+00 -0.16169061703E+03  0.16169061703E+03  0.00000000000E+00 0.  1.
         -6    2    1    2    0  503  0.57747968689E+02 -0.14744694706E+03  0.35749078931E+02  0.24237099858E+03  0.17997298192E+03 0.  0.
        -24    2    3    3    0    0  0.10010506442E+03 -0.14981502080E+03  0.26562290418E+02  0.19871073729E+03  0.79465951591E+02 0.  0.
          6    2    1    2  501    0 -0.57747968689E+02  0.14744694706E+03  0.17060278568E+03  0.28736210009E+03  0.16851182748E+03 0.  0.
         24    2    5    5    0    0  0.20467335247E+01  0.13391698802E+03  0.16260017899E+03  0.22535727835E+03  0.80057079008E+02 0.  0.
          5    1    5    5  501    0 -0.59794702214E+02  0.13529959037E+02  0.80026066846E+01  0.62004821733E+02  0.47000000000E+01 0. -1.
        -11    1    6    6    0    0 -0.43311405081E+01  0.31922257403E+02  0.10104639752E+03  0.10605736065E+03  0.00000000000E+00 0.  1.
         12    1    6    6    0    0  0.63778740329E+01  0.10199473062E+03  0.61553781475E+02  0.11929991771E+03  0.00000000000E+00 0. -1.
         -5    1    3    3    0  503 -0.42357095735E+02  0.23680737403E+01  0.91867885135E+01  0.43660261286E+02  0.47000000000E+01 0.  1.
         11    1    4    4    0    0  0.30175994775E+01 -0.69905809813E+02 -0.10164117914E+01  0.69978291242E+02  0.00000000000E+00 0. -1.
        -12    1    4    4    0    0  0.97087464947E+02 -0.79909210985E+02  0.27578702209E+02  0.12873244605E+03  0.00000000000E+00 0.  1.
</event>
<event>
12    1  0.8297444E-002  0.2081453E+03  0.7818608E-02  0.1143064E+00
         21   -1    0    0  501  502  0.00000000000E+00  0.00000000000E+00  0.19833075720E+03  0.19833075720E+03  0.00000000000E+00 0.  1.
         21   -1    0    0  502  503 -0.00000000000E+00 -0.00000000000E+00 -0.22953967360E+03  0.22953967360E+03  0.00000000000E+00 0. -1.
         -6    2    1    2    0  503  0.62244588915E+02  0.98174751098E+02 -0.62860147489E+02  0.21733238023E+03  0.17253780673E+03 0.  0.
        -24    2    3    3    0    0  0.54686844305E+02  0.10392677906E+03 -0.10340117587E+03  0.17542927400E+03  0.79323392880E+02 0.  0.
          6    2    1    2  501    0 -0.62244588915E+02 -0.98174751098E+02  0.31651231086E+02  0.21053805057E+03  0.17266093856E+03 0.  0.
         24    2    5    5    0    0 -0.39826992960E+02 -0.11877161070E+03 -0.20592366962E+02  0.14988936739E+03  0.79686209622E+02 0.  0.
          5    1    5    5  501    0 -0.22417595955E+02  0.20596859601E+02  0.52243598048E+02  0.60648683175E+02  0.47000000000E+01 0. -1.
        -13    1    6    6    0    0 -0.58346321390E+02 -0.79587809488E+02 -0.34234204965E+02  0.10445330741E+03  0.00000000000E+00 0.  1.
         14    1    6    6    0    0  0.18519328430E+02 -0.39183801211E+02  0.13641838002E+02  0.45436059984E+02  0.00000000000E+00 0. -1.
         -5    1    3    3    0  503  0.75577446104E+01 -0.57520279629E+01  0.40541028382E+02  0.41903106228E+02  0.47000000000E+01 0.  1.
         13    1    4    4    0    0  0.32821464857E+02  0.28694189385E+02 -0.84120104382E+02  0.94745960447E+02  0.00000000000E+00 0. -1.
        -14    1    4    4    0    0  0.21865379448E+02  0.75232589677E+02 -0.19281071489E+02  0.80683313551E+02  0.00000000000E+00 0.  1.
</event>
<event>
12    1  0.8297444E-002  0.1895021E+03  0.7818608E-02  0.1158970E+00
         21   -1    0    0  503  502  0.00000000000E+00  0.00000000000E+00  0.15309148137E+03  0.15309148137E+03  0.00000000000E+00 0.  1.
         21   -1    0    0  501  503 -0.00000000000E+00 -0.00000000000E+00 -0.29690090567E+03  0.29690090567E+03  0.00000000000E+00 0.  1.
          6    2    1    2  501    0  0.71354854906E+01 -0.77538554041E+02 -0.17522010740E+03  0.25790469476E+03  0.17248073232E+03 0.  0.
         24    2    3    3    0    0  0.36250310201E+02  0.18708403099E+02 -0.74742379682E+02  0.11567595805E+03  0.78296964271E+02 0.  0.
         -6    2    1    2    0  502 -0.71354854906E+01  0.77538554041E+02  0.31410683105E+02  0.19208769228E+03  0.17276547108E+03 0.  0.
        -24    2    5    5    0    0 -0.42104758415E+02  0.73275861472E+02 -0.31241325381E+02  0.12005724897E+03  0.79344565425E+02 0.  0.
          5    1    3    3  501    0 -0.29114824711E+02 -0.96246957140E+02 -0.10047772772E+03  0.14222873671E+03  0.47000000000E+01 0. -1.
        -13    1    4    4    0    0 -0.13804839246E+02  0.29234987089E+02 -0.48228625439E+02  0.58062538426E+02  0.00000000000E+00 0.  1.
         14    1    4    4    0    0  0.50055149448E+02 -0.10526583990E+02 -0.26513754243E+02  0.57613419624E+02  0.00000000000E+00 0. -1.
         -5    1    5    5    0  502  0.34969272925E+02  0.42626925687E+01  0.62652008486E+02  0.72030443315E+02  0.47000000000E+01 0.  1.
         11    1    6    6    0    0 -0.32015692588E+02  0.18473939747E+02  0.21977478710E+02  0.43003495115E+02  0.00000000000E+00 0. -1.
        -12    1    6    6    0    0 -0.10089065828E+02  0.54801921725E+02 -0.53218804091E+02  0.77053753853E+02  0.00000000000E+00 0.  1.
</event>
<event>
12    1  0.8297444E-002  0.2158685E+03  0.7818608E-02  0.1137123E+00
         21   -1    0    0  501  502  0.00000000000E+00  0.00000000000E+00  0.86524132146E+03  0.86524132146E+03  0.00000000000E+00 0.  1.
         21   -1    0    0  502  503 -0.00000000000E+00 -0.00000000000E+00 -0.66117816534E+02  0.66117816534E+02  0.00000000000E+00 0. -1.
         -6    2    1    2    0  503  0.63380164677E+02 -0.11388543266E+03  0.19725241338E+03  0.29194689453E+03  0.17128204108E+03 0.  0.
        -24    2    3    3    0    0  0.76224750249E+02 -0.88866355193E+02  0.66356874262E+02  0.15798171332E+03  0.82749896356E+02 0.  0.
          6    2    1    2  501    0 -0.63380164677E+02  0.11388543266E+03  0.60187109155E+03  0.63941224347E+03  0.17208215829E+03 0.  0.
         24    2    5    5    0    0 -0.10434093864E+03  0.11589861959E+03  0.48013021675E+03  0.51086354249E+03  0.78339086736E+02 0.  0.
          5    1    5    5  501    0  0.40960773961E+02 -0.20131869256E+01  0.12174087481E+03  0.12854870098E+03  0.47000000000E+01 0. -1.
        -11    1    6    6    0    0 -0.46306807604E+02  0.10083313090E+03  0.35814985086E+03  0.37494393766E+03  0.00000000000E+00 0.  1.
         12    1    6    6    0    0 -0.58034131034E+02  0.15065488688E+02  0.12198036589E+03  0.13591960483E+03  0.00000000000E+00 0. -1.
         -5    1    3    3    0  503 -0.12844585572E+02 -0.25019077468E+02  0.13089553911E+03  0.13396518121E+03  0.47000000000E+01 0.  1.
         13    1    4    4    0    0  0.14156496490E+02 -0.50296956513E+02 -0.89897910412E+01  0.53018926529E+02  0.00000000000E+00 0. -1.
        -14    1    4    4    0    0  0.62068253759E+02 -0.38569398680E+02  0.75346665303E+02  0.10496278679E+03  0.00000000000E+00 0.  1.
</event>
<event>
12    1  0.8297444E-002  0.2058792E+03  0.7818608E-02  0.1146691E+00
         21   -1    0    0  503  502  0.00000000000E+00  0.00000000000E+00  0.14399671918E+03  0.14399671918E+03  0.00000000000E+00 0.  1.
         21   -1    0    0  501  503 -0.00000000000E+00 -0.00000000000E+00 -0.15833575254E+04  0.15833575254E+04  0.00000000000E+00 0. -1.
          6    2    1    2  501    0 -0.72600540296E+02  0.68377692815E+02 -0.14998685436E+04  0.15127675648E+04  0.17004031851E+03 0.  0.
         24    2    3    3    0    0  0.24158260541E+00 -0.79466149840E+01 -0.90779477598E+03  0.91134856689E+03  0.80010299470E+02 0.  0.
         -6    2    1    2    0  502  0.72600540296E+02 -0.68377692815E+02  0.60507737326E+02  0.21458667976E+03  0.18011082568E+03 0.  0.
        -24    2    5    5    0    0 -0.10356821476E+02 -0.10517568622E+02 -0.20451261611E+02  0.84948076892E+02  0.81117437493E+02 0.  0.
          5    1    3    3  501    0 -0.72842122901E+02  0.76324307799E+02 -0.59207376758E+03  0.60141899794E+03  0.47000000000E+01 0. -1.
        -13    1    4    4    0    0  0.34725470757E+02 -0.40223087051E+01 -0.22760363617E+03  0.23027256129E+03  0.00000000000E+00 0.  1.
         14    1    4    4    0    0 -0.34483888152E+02 -0.39243062788E+01 -0.68019113982E+03  0.68107600560E+03  0.00000000000E+00 0. -1.
         -5    1    5    5    0  502  0.82957361772E+02 -0.57860124194E+02  0.80958998938E+02  0.12963860286E+03  0.47000000000E+01 0.  1.
         13    1    6    6    0    0 -0.15991806258E+02 -0.44791887643E+02 -0.14376940078E+02  0.49686491847E+02  0.00000000000E+00 0. -1.
        -14    1    6    6    0    0  0.56349847821E+01  0.34274319021E+02 -0.60743215334E+01  0.35261585046E+02  0.00000000000E+00 0.  1.
</event>
<event>
12    1  0.8297444E-002  0.2591137E+03  0.7818608E-02  0.1107751E+00
         21   -1    0    0  501  502  0.00000000000E+00  0.00000000000E+00  0.30818369072E+03  0.30818369072E+03  0.00000000000E+00 0. -1.
         21   -1    0    0  502  503 -0.00000000000E+00 -0.00000000000E+00 -0.32993346378E+03  0.32993346378E+03  0.00000000000E+00 0.  1.
         -6    2    1    2    0  503 -0.77767252156E+02  0.17712207485E+03 -0.19717975492E+03  0.32560677681E+03  0.17239472860E+03 0.  0.
        -24    2    3    3    0    0 -0.11534139717E+03  0.16672557586E+03 -0.15151849428E+03  0.26538265965E+03  0.79806305445E+02 0.  0.
          6    2    1    2  501    0  0.77767252156E+02 -0.17712207485E+03  0.17542998186E+03  0.31251037768E+03  0.17165978771E+03 0.  0.
         24    2    5    5    0    0  0.12005986167E+03 -0.13134303889E+03  0.11786087558E+03  0.22753581119E+03  0.78841582487E+02 0.  0.
          5    1    5    5  501    0 -0.42292609518E+02 -0.45779035952E+02  0.57569106284E+02  0.84974566495E+02  0.47000000000E+01 0. -1.
        -13    1    6    6    0    0  0.55339499163E+02 -0.17303781641E+02  0.12471115532E+02  0.59307754546E+02  0.00000000000E+00 0.  1.
         14    1    6    6    0    0  0.64720362511E+02 -0.11403925725E+03  0.10538976005E+03  0.16822805664E+03  0.00000000000E+00 0. -1.
         -5    1    3    3    0  503  0.37574145012E+02  0.10396498990E+02 -0.45661260641E+02  0.60224117162E+02  0.47000000000E+01 0.  1.
         13    1    4    4    0    0 -0.70752745889E+02  0.51016961209E+02 -0.31305270462E+02  0.92675246644E+02  0.00000000000E+00 0. -1.
        -14    1    4    4    0    0 -0.44588651279E+02  0.11570861465E+03 -0.12021322382E+03  0.17270741301E+03  0.00000000000E+00 0.  1.
</event>
