<event>
12    1  0.1596842E-001  0.1882905E+03  0.7818608E-02  0.1160218E+00
         21   -1    0    0  503  502  0.00000000000E+00  0.00000000000E+00  0.18591209532E+03  0.18591209532E+03  0.00000000000E+00 0. -1.
         21   -1    0    0  501  503 -0.00000000000E+00 -0.00000000000E+00 -0.32423789252E+03  0.32423789252E+03  0.00000000000E+00 0. -1.
          6    2    1    2  501    0  0.47446118370E+02 -0.57074637973E+02 -0.23331857096E+03  0.29925439523E+03  0.17206681570E+03 0.  0.
         24    2    3    3    0    0  0.46770659290E+02  0.12898654771E+02 -0.60329536592E+02  0.11258888167E+03  0.81747987287E+02 0.  0.
         -6    2    1    2    0  502 -0.47446118370E+02  0.57074637973E+02  0.94992773765E+02  0.21089559261E+03  0.17304529888E+03 0.  0.
        -24    2    5    5    0    0 -0.11049170575E+02  0.10077874945E+03  0.80547336406E+02  0.15202668885E+03  0.79660531074E+02 0.  0.
          5    1    3    3  501    0  0.67545908036E+00 -0.69973292744E+02 -0.17298903437E+03  0.18666551356E+03  0.47000000000E+01 0. -1.
        -11    1    4    4    0    0  0.21781151414E+02  0.47503819348E+02 -0.35976795179E+02  0.63445734300E+02  0.00000000000E+00 0.  1.
         12    1    4    4    0    0  0.24989507876E+02 -0.34605164577E+02 -0.24352741414E+02  0.49143147372E+02  0.00000000000E+00 0. -1.
         -5    1    5    5    0  502 -0.36396947795E+02 -0.43704111475E+02  0.14445437359E+02  0.58868903753E+02  0.47000000000E+01 0.  1.
         13    1    6    6    0    0 -0.15950865767E+02  0.93491267962E+02  0.28197386346E+02  0.98945135811E+02  0.00000000000E+00 0. -1.
        -14    1    6    6    0    0  0.49016951925E+01  0.72874814857E+01  0.52349950060E+02  0.53081553043E+02  0.00000000000E+00 0.  1.
</event>
<event>
12    1  0.1596842E-001  0.2288390E+03  0.7818608E-02  0.1127513E+00
         21   -1    0    0  503  502  0.00000000000E+00  0.00000000000E+00  0.34708094692E+03  0.34708094692E+03  0.00000000000E+00 0. -1.
         21   -1    0    0  501  503 -0.00000000000E+00 -0.00000000000E+00 -0.15921825033E+03  0.15921825033E+03  0.00000000000E+00 0. -1.
          6    2    1    2  501    0 -0.65682461007E+01  0.15058729742E+03  0.15249115712E+03  0.27474266295E+03  0.17178562759E+03 0.  0.
         24    2    3    3    0    0 -0.25551133824E+02  0.91378356779E+02  0.15199868432E+02  0.12395461095E+03  0.78299712949E+02 0.  0.
         -6    2    1    2    0  502  0.65682461007E+01 -0.15058729742E+03  0.35371539470E+02  0.23155653430E+03  0.17218480412E+03 0.  0.
        -24    2    5    5    0    0 -0.29585116502E+02 -0.88129404773E+02  0.80624746479E+02  0.14624535844E+03  0.79027109382E+02 0.  0.
          5    1    3    3  501    0  0.18982887723E+02  0.59208940644E+02  0.13729128868E+03  0.15078805200E+03  0.47000000000E+01 0. -1.
        -11    1    4    4    0    0 -0.45145567526E+02  0.32169420929E+02  0.25019794115E+02  0.60819273325E+02  0.00000000000E+00 0.  1.
         12    1    4    4    0    0  0.19594433702E+02  0.59208935850E+02 -0.98199256834E+01  0.63135337625E+02  0.00000000000E+00 0. -1.
         -5    1    5    5    0  502  0.36153362603E+02 -0.62457892651E+02 -0.45253207009E+02  0.85311175859E+02  0.47000000000E+01 0.  1.
         13    1    6    6    0    0  0.10528672853E+02 -0.86054704581E+01 -0.11715810443E+02  0.17949019142E+02  0.00000000000E+00 0. -1.
        -14    1    6    6    0    0 -0.40113789355E+02 -0.79523934315E+02  0.92340556922E+02  0.12829633930E+03  0.00000000000E+00 0.  1.
</event>
<event>
12    1  0.1596842E-001  0.1869515E+03  0.7818608E-02  0.1161255E+00
         21   -1    0    0  503  502  0.00000000000E+00  0.00000000000E+00  0.10560841129E+03  0.10560841129E+03  0.00000000000E+00 0. -1.
         21   -1    0    0  501  503 -0.00000000000E+00 -0.00000000000E+00 -0.40660824716E+03  0.40660824716E+03  0.00000000000E+00 0. -1.
          6    2    1    2  501    0  0.72533629660E+02 -0.98214273519E+01 -0.26108093478E+03  0.32111386990E+03  0.17202696030E+03 0.  0.
         24    2    3    3    0    0  0.33045278435E+02  0.42836813497E+01 -0.38801826808E+02  0.94865387440E+02  0.79896931217E+02 0.  0.
         -6    2    1    2    0  502 -0.72533629660E+02  0.98214273519E+01 -0.39918901093E+02  0.19110278855E+03  0.17195688197E+03 0.  0.
        -24    2    5    5    0    0 -0.76530760954E+02 -0.53408183162E+02 -0.34522794129E+02  0.12734411326E+03  0.79468915091E+02 0.  0.
          5    1    3    3  501    0  0.39488351225E+02 -0.14105108702E+02 -0.22227910797E+03  0.22624848246E+03  0.47000000000E+01 0. -1.
        -13    1    4    4    0    0 -0.23550289578E+02 -0.13421952776E+02 -0.95229419979E+01  0.28730669673E+02  0.00000000000E+00 0.  1.
         14    1    4    4    0    0  0.56595568013E+02  0.17705634125E+02 -0.29278884810E+02  0.66134717768E+02  0.00000000000E+00 0. -1.
         -5    1    5    5    0  502  0.39971312938E+01  0.63229610514E+02 -0.53961069640E+01  0.63758675289E+02  0.47000000000E+01 0.  1.
         13    1    6    6    0    0 -0.12720206022E+02 -0.56187545886E+02 -0.79075251543E+01  0.58149573584E+02  0.00000000000E+00 0. -1.
        -14    1    6    6    0    0 -0.63810554932E+02  0.27793627240E+01 -0.26615268975E+02  0.69194539673E+02  0.00000000000E+00 0.  1.
</event>
<event>
12    1  0.1596842E-001  0.1791818E+03  0.7818608E-02  0.1168792E+00
         21   -1    0    0  501  502  0.00000000000E+00  0.00000000000E+00  0.12486977246E+03  0.12486977246E+03  0.00000000000E+00 0. -1.
         21   -1    0    0  502  503 -0.00000000000E+00 -0.00000000000E+00 -0.28251598757E+03  0.28251598757E+03  0.00000000000E+00 0. -1.
         -6    2    1    2    0  503 -0.17194481552E+02 -0.42661847961E+02 -0.14141619150E+03  0.22826440819E+03  0.17317741585E+03 0.  0.
        -24    2    3    3    0    0 -0.72401556826E+01 -0.19924243773E+02 -0.17033796378E+03  0.18986328634E+03  0.81139695893E+02 0.  0.
          6    2    1    2  501    0  0.17194481552E+02  0.42661847961E+02 -0.16230023609E+02  0.17912135184E+03  0.17235243413E+03 0.  0.
         24    2    5    5    0    0  0.11119146575E+02  0.59959695718E+02  0.51534410688E+02  0.10876345401E+03  0.73857246846E+02 0.  0.
          5    1    5    5  501    0  0.60753349768E+01 -0.17297847757E+02 -0.67764434296E+02  0.70357897834E+02  0.47000000000E+01 0. -1.
        -13    1    6    6    0    0 -0.20113864928E+02 -0.63640682457E+01  0.42304525931E+01  0.21516636729E+02  0.00000000000E+00 0.  1.
         14    1    6    6    0    0  0.31233011504E+02  0.66323763964E+02  0.47303958095E+02  0.87246817279E+02  0.00000000000E+00 0. -1.
         -5    1    3    3    0  503 -0.99543258697E+01 -0.22737604188E+02  0.28921772279E+02  0.38401121852E+02  0.47000000000E+01 0.  1.
         13    1    4    4    0    0 -0.43705353076E+02 -0.18237671457E+02 -0.96690256591E+02  0.10766511165E+03  0.00000000000E+00 0. -1.
        -14    1    4    4    0    0  0.36465197393E+02 -0.16865723156E+01 -0.73647707193E+02  0.82198174687E+02  0.00000000000E+00 0.  1.
</event>
<event>
12    1  0.1596842E-001  0.2481148E+03  0.7818608E-02  0.1114594E+00
         21   -1    0    0  501  502  0.00000000000E+00  0.00000000000E+00  0.25225038348E+03  0.25225038348E+03  0.00000000000E+00 0. -1.
         21   -1    0    0  502  503 -0.00000000000E+00 -0.00000000000E+00 -0.40556593300E+03  0.40556593300E+03  0.00000000000E+00 0.  1.
         -6    2    1    2    0  503  0.17556130721E+02 -0.17735360925E+03 -0.28464169659E+03  0.37760014448E+03  0.17262228488E+03 0.  0.
        -24    2    3    3    0    0 -0.49770200241E+02 -0.10167082953E+03 -0.20711119294E+03  0.24995302551E+03  0.82264441351E+02 0.  0.
          6    2    1    2  501    0 -0.17556130721E+02  0.17735360925E+03  0.13132614707E+03  0.28021617200E+03  0.17179064499E+03 0.  0.
         24    2    5    5    0    0 -0.41999716450E+01  0.68635702955E+02  0.13368417222E+03  0.17055478218E+03  0.80554182647E+02 0.  0.
          5    1    5    5  501    0 -0.13356159076E+02  0.10871790629E+03 -0.23580251519E+01  0.10966138981E+03  0.47000000000E+01 0. -1.
        -11    1    6    6    0    0  0.27460789413E+01 -0.14617202940E+02  0.25793485638E+01  0.15094920019E+02  0.00000000000E+00 0.  1.
         12    1    6    6    0    0 -0.69460505863E+01  0.83252905896E+02  0.13110482366E+03  0.15545986217E+03  0.00000000000E+00 0. -1.
         -5    1    3    3    0  503  0.67326330963E+02 -0.75682779712E+02 -0.77530503655E+02  0.12764711898E+03  0.47000000000E+01 0.  1.
         13    1    4    4    0    0 -0.12269970836E+02 -0.32710531928E+02 -0.78774807391E+01  0.35813206868E+02  0.00000000000E+00 0. -1.
        -14    1    4    4    0    0 -0.37500229405E+02 -0.68960297605E+02 -0.19923371220E+03  0.21413981864E+03  0.00000000000E+00 0.  1.
</event>
<event>
12    1  0.1596842E-001  0.1778781E+03  0.7818608E-02  0.1171154E+00
         21   -1    0    0  501  502  0.00000000000E+00  0.00000000000E+00  0.24144601877E+03  0.24144601877E+03  0.00000000000E+00 0.  1.
         21   -1    0    0  502  503 -0.00000000000E+00 -0.00000000000E+00 -0.13185515724E+03  0.13185515724E+03  0.00000000000E+00 0.  1.
         -6    2    1    2    0  503  0.18083077063E+02  0.15242261711E+02  0.20844781898E+02  0.17909531421E+03  0.17629890079E+03 0.  0.
        -24    2    3    3    0    0  0.21776763194E+02 -0.60220676823E+02 -0.49982501704E+01  0.99106247982E+02  0.75473893182E+02 0.  0.
          6    2    1    2  501    0 -0.18083077063E+02 -0.15242261711E+02  0.88746079637E+02  0.19420586180E+03  0.17111611815E+03 0.  0.
         24    2    5    5    0    0 -0.75912291675E+02 -0.21920037370E+02  0.33359935451E+02  0.11371657234E+03  0.74668664551E+02 0.  0.
          5    1    5    5  501    0  0.57829214612E+02  0.66777756591E+01  0.55386144186E+02  0.80489289462E+02  0.47000000000E+01 0. -1.
        -11    1    6    6    0    0 -0.53495586678E+02 -0.11516698951E+02  0.57354442877E+02  0.79271333194E+02  0.00000000000E+00 0.  1.
         12    1    6    6    0    0 -0.22416704997E+02 -0.10403338420E+02 -0.23994507426E+02  0.34445239146E+02  0.00000000000E+00 0. -1.
         -5    1    3    3    0  503 -0.36936861309E+01  0.75462938534E+02  0.25843032069E+02  0.79989066227E+02  0.47000000000E+01 0.  1.
         13    1    4    4    0    0 -0.25476890979E+02 -0.35676307819E+02  0.73355050761E+01  0.44448628193E+02  0.00000000000E+00 0. -1.
        -14    1    4    4    0    0  0.47253654173E+02 -0.24544369004E+02 -0.12333755246E+02  0.54657619789E+02  0.00000000000E+00 0.  1.
</event>
<event>
12    1  0.1596842E-001  0.2481517E+03  0.7818608E-02  0.1114579E+00
         21   -1    0    0  501  502  0.00000000000E+00  0.00000000000E+00  0.15727545072E+03  0.15727545072E+03  0.00000000000E+00 0. -1.
         21   -1    0    0  502  503 -0.00000000000E+00 -0.00000000000E+00 -0.87332269839E+03  0.87332269839E+03  0.00000000000E+00 0.  1.
         -6    2    1    2    0  503 -0.75732282707E+02 -0.16145637535E+03 -0.74095029551E+03  0.78120005018E+03  0.17164684154E+03 0.  0.
        -24    2    3    3    0    0 -0.35726951429E+02 -0.28366033799E+02 -0.44413454688E+03  0.45342704309E+03  0.79117259454E+02 0.  0.
          6    2    1    2  501    0  0.75732282707E+02  0.16145637535E+03  0.24903047832E+02  0.24939809893E+03  0.17255639708E+03 0.  0.
         24    2    5    5    0    0  0.94278308941E+02  0.79947795648E+02 -0.29734736271E+02  0.14942319655E+03  0.78505334605E+02 0.  0.
          5    1    5    5  501    0 -0.18546026234E+02  0.81508579700E+02  0.54637784103E+02  0.99974902378E+02  0.47000000000E+01 0. -1.
        -11    1    6    6    0    0  0.63158648462E+02  0.17346796935E+02 -0.42884361463E+02  0.78287896239E+02  0.00000000000E+00 0.  1.
         12    1    6    6    0    0  0.31119660480E+02  0.62600998712E+02  0.13149625192E+02  0.71135300314E+02  0.00000000000E+00 0. -1.
         -5    1    3    3    0  503 -0.40005331278E+02 -0.13309034155E+03 -0.29681574862E+03  0.32777300709E+03  0.47000000000E+01 0.  1.
         13    1    4    4    0    0  0.20495558176E+02 -0.49673607986E+01 -0.45277628773E+02  0.49948035452E+02  0.00000000000E+00 0. -1.
        -14    1    4    4    0    0 -0.56222509605E+02 -0.23398673000E+02 -0.39885691811E+03  0.40347900764E+03  0.00000000000E+00 0.  1.
</event>
<event>
12    1  0.1596842E-001  0.2175496E+03  0.7818608E-02  0.1135889E+00
         21   -1    0    0  501  502  0.00000000000E+00  0.00000000000E+00  0.62375513290E+02  0.62375513290E+02  0.00000000000E+00 0. -1.
         21   -1    0    0  502  503 -0.00000000000E+00 -0.00000000000E+00 -0.90975814960E+03  0.90975814960E+03  0.00000000000E+00 0. -1.
         -6    2    1    2    0  503 -0.43779201784E+02  0.12177662969E+03 -0.62299361556E+03  0.65959844188E+03  0.17378979673E+03 0.  0.
        -24    2    3    3    0    0  0.34004424090E+02  0.10079304646E+03 -0.44154176935E+03  0.46100975712E+03  0.79090599998E+02 0.  0.
          6    2    1    2  501    0  0.43779201784E+02 -0.12177662969E+03 -0.22438902075E+03  0.31253522102E+03  0.17487614386E+03 0.  0.
         24    2    5    5    0    0 -0.21391720157E+02 -0.43962086369E+01 -0.94095680565E+02  0.12538860253E+03  0.79946058073E+02 0.  0.
          5    1    5    5  501    0  0.65170921941E+02 -0.11738042106E+03 -0.13029334019E+03  0.18714661849E+03  0.47000000000E+01 0. -1.
        -11    1    6    6    0    0  0.52034742254E+01  0.31133539697E+02 -0.15587442535E+02  0.35204286711E+02  0.00000000000E+00 0.  1.
         12    1    6    6    0    0 -0.26595194382E+02 -0.35529748334E+02 -0.78508238030E+02  0.90184315818E+02  0.00000000000E+00 0. -1.
         -5    1    3    3    0  503 -0.77783625874E+02  0.20983583232E+02 -0.18145184621E+03  0.19858868476E+03  0.47000000000E+01 0.  1.
         13    1    4    4    0    0  0.44613789077E+02  0.63564077345E+02 -0.17220979850E+03  0.18891002303E+03  0.00000000000E+00 0. -1.
        -14    1    4    4    0    0 -0.10609364986E+02  0.37228969117E+02 -0.26933197085E+03  0.27209973408E+03  0.00000000000E+00 0.  1.
</event>
<event>
12    1  0.1596842E-001  0.1912471E+03  0.7818608E-02  0.1157345E+00
         21   -1    0    0  501  502  0.00000000000E+00  0.00000000000E+00  0.20188833097E+03  0.20188833097E+03  0.00000000000E+00 0.  1.
         21   -1    0    0  502  503 -0.00000000000E+00 -0.00000000000E+00 -0.59512446737E+03  0.59512446737E+03  0.00000000000E+00 0. -1.
         -6    2    1    2    0  503  0.48310239145E+02  0.68069392865E+02 -0.52898747744E+03  0.56249728599E+03  0.17207011362E+03 0.  0.
        -24    2    3    3    0    0  0.84289804678E+02  0.72316707452E+02 -0.28845801318E+03  0.31920922217E+03  0.79699590980E+02 0.  0.
          6    2    1    2  501    0 -0.48310239145E+02 -0.68069392865E+02  0.13575134104E+03  0.23451551235E+03  0.17205167098E+03 0.  0.
         24    2    5    5    0    0 -0.42417329065E+02  0.29745612913E+02  0.67351529226E+02  0.11491983517E+03  0.77371239708E+02 0.  0.
          5    1    5    5  501    0 -0.58929100801E+01 -0.97815005778E+02  0.68399811813E+02  0.11959567718E+03  0.47000000000E+01 0. -1.
        -13    1    6    6    0    0 -0.63699953000E+02  0.13984389954E+02  0.38398417034E+02  0.75681474651E+02  0.00000000000E+00 0.  1.
         14    1    6    6    0    0  0.21282623934E+02  0.15761222959E+02  0.28953112192E+02  0.39238360520E+02  0.00000000000E+00 0. -1.
         -5    1    3    3    0  503 -0.35979565532E+02 -0.42473145868E+01 -0.24052946426E+03  0.24328806381E+03  0.47000000000E+01 0.  1.
         13    1    4    4    0    0  0.59033778588E+02  0.10548210553E+02 -0.19745593666E+03  0.20636157268E+03  0.00000000000E+00 0. -1.
        -14    1    4    4    0    0  0.25256026089E+02  0.61768496899E+02 -0.91002076526E+02  0.11284764949E+03  0.00000000000E+00 0.  1.
</event>
<event>
12    1  0.1596842E-001  0.1730491E+03  0.7818608E-02  0.1175638E+00
         21   -1    0    0  501  502  0.00000000000E+00  0.00000000000E+00  0.20088409381E+03  0.20088409381E+03  0.00000000000E+00 0.  1.
         21   -1    0    0  502  503 -0.00000000000E+00 -0.00000000000E+00 -0.55564723520E+03  0.55564723520E+03  0.00000000000E+00 0.  1.
         -6    2    1    2    0  503  0.58869060188E+01 -0.13457964460E+02 -0.50168695175E+03  0.52952340893E+03  0.16878824184E+03 0.  0.
        -24    2    3    3    0    0  0.19278891948E+02  0.58594695470E+00 -0.10890501002E+03  0.13623430346E+03  0.79545365821E+02 0.  0.
          6    2    1    2  501    0 -0.58869060188E+01  0.13457964460E+02  0.14692381036E+03  0.22700792007E+03  0.17242452626E+03 0.  0.
         24    2    5    5    0    0 -0.67505162259E+02 -0.15715797555E+02  0.10983599701E+03  0.14925501793E+03  0.73547133963E+02 0.  0.
          5    1    5    5  501    0  0.61618256240E+02  0.29173762014E+02  0.37087813342E+02  0.77752902136E+02  0.47000000000E+01 0. -1.
        -13    1    6    6    0    0 -0.32238234342E+02  0.29100877198E+02  0.39518609815E+02  0.58718696588E+02  0.00000000000E+00 0.  1.
         14    1    6    6    0    0 -0.35266927917E+02 -0.44816674753E+02  0.70317387198E+02  0.90536321347E+02  0.00000000000E+00 0. -1.
         -5    1    3    3    0  503 -0.13391985929E+02 -0.14043911414E+02 -0.39278194172E+03  0.39328910547E+03  0.47000000000E+01 0.  1.
         13    1    4    4    0    0  0.36844089761E+02 -0.27502432705E+02 -0.45437230575E+02  0.64640642612E+02  0.00000000000E+00 0. -1.
        -14    1    4    4    0    0 -0.17565197813E+02  0.28088379659E+02 -0.63467779448E+02  0.71593660851E+02  0.00000000000E+00 0.  1.
</event>
<event>
12    1  0.1596842E-001  0.2001459E+03  0.7818608E-02  0.1150042E+00
         21   -1    0    0  501  502  0.00000000000E+00  0.00000000000E+00  0.74447846865E+03  0.74447846865E+03  0.00000000000E+00 0. -1.
         21   -1    0    0  502  503 -0.00000000000E+00 -0.00000000000E+00 -0.18685842725E+03  0.18685842725E+03  0.00000000000E+00 0. -1.
         -6    2    1    2    0  503 -0.96961069342E+02 -0.18583256947E+02 -0.11532887576E+03  0.22925526576E+03  0.17178603228E+03 0.  0.
        -24    2    3    3    0    0 -0.11107669865E+03 -0.59372777123E+02 -0.10675426867E+03  0.18499862972E+03  0.83455733611E+02 0.  0.
          6    2    1    2  501    0  0.96961069342E+02  0.18583256947E+02  0.67294891717E+03  0.70208163014E+03  0.17410222245E+03 0.  0.
         24    2    5    5    0    0  0.13686897518E+03  0.13871267222E+02  0.55979431917E+03  0.58191134745E+03  0.79533691573E+02 0.  0.
          5    1    5    5  501    0 -0.39907905833E+02  0.47119897254E+01  0.11315459799E+03  0.12017028269E+03  0.47000000000E+01 0. -1.
        -13    1    6    6    0    0  0.19755345461E+02  0.30326102654E+02  0.80843223659E+02  0.88575239136E+02  0.00000000000E+00 0.  1.
         14    1    6    6    0    0  0.11711362971E+03 -0.16454835433E+02  0.47895109552E+03  0.49333610832E+03  0.00000000000E+00 0. -1.
         -5    1    3    3    0  503  0.14115629308E+02  0.40789520176E+02 -0.85746070913E+01  0.44256636041E+02  0.47000000000E+01 0.  1.
         13    1    4    4    0    0 -0.48100714986E+02 -0.72105853208E+02 -0.65525562963E+02  0.10865786787E+03  0.00000000000E+00 0. -1.
        -14    1    4    4    0    0 -0.62975983663E+02  0.12733076086E+02 -0.41228705710E+02  0.76340761848E+02  0.00000000000E+00 0.  1.
</event>
<event>
12    1  0.1596842E-001  0.2968848E+03  0.7818608E-02  0.1087098E+00
         21   -1    0    0  501  502  0.00000000000E+00  0.00000000000E+00  0.65004765283E+03  0.65004765283E+03  0.00000000000E+00 0.  1.
         21   -1    0    0  502  503 -0.00000000000E+00 -0.00000000000E+00 -0.25354338437E+03  0.25354338437E+03  0.00000000000E+00 0. -1.
         -6    2    1    2    0  503  0.22662203421E+03 -0.76781158954E+02 -0.11166047282E+03  0.31505728825E+03  0.17187245542E+03 0.  0.
        -24    2    3    3    0    0  0.77429965440E+02  0.24022869429E+02 -0.34812130476E+02  0.11923215390E+03  0.80199278629E+02 0.  0.
          6    2    1    2  501    0 -0.22662203421E+03  0.76781158954E+02  0.50816474128E+03  0.58853374894E+03  0.17574890213E+03 0.  0.
         24    2    5    5    0    0 -0.68392461519E+02  0.32824813430E+01  0.10480094660E+03  0.14903051329E+03  0.80861313418E+02 0.  0.
          5    1    5    5  501    0 -0.15822957269E+03  0.73498677611E+02  0.40336379468E+03  0.43950323564E+03  0.47000000000E+01 0. -1.
        -11    1    6    6    0    0  0.61650238593E+01 -0.15595871841E+02  0.54768157230E+02  0.57278178952E+02  0.00000000000E+00 0.  1.
         12    1    6    6    0    0 -0.74557485379E+02  0.18878353184E+02  0.50032789371E+02  0.91752334342E+02  0.00000000000E+00 0. -1.
         -5    1    3    3    0  503  0.14919206877E+03 -0.10080402838E+03 -0.76848342345E+02  0.19582513435E+03  0.47000000000E+01 0.  1.
         13    1    4    4    0    0  0.10334538912E+02 -0.27167053116E+02 -0.37645743384E+01  0.29309102503E+02  0.00000000000E+00 0. -1.
        -14    1    4    4    0    0  0.67095426528E+02  0.51189922546E+02 -0.31047556138E+02  0.89923051401E+02  0.00000000000E+00 0.  1.
</event>
<event>
12    1  0.1596842E-001  0.1821368E+03  0.7818608E-02  0.1166034E+00
         21   -1    0    0  503  502  0.00000000000E+00  0.00000000000E+00  0.15447807190E+03  0.15447807190E+03  0.00000000000E+00 0. -1.
         21   -1    0    0  501  503 -0.00000000000E+00 -0.00000000000E+00 -0.23504918851E+03  0.23504918851E+03  0.00000000000E+00 0. -1.
          6    2    1    2  501    0  0.19481724233E+02  0.54964982282E+02 -0.99576735258E+02  0.20757976216E+03  0.17254896289E+03 0.  0.
         24    2    3    3    0    0  0.33857936011E+02 -0.31617992994E+02 -0.29076808384E+02  0.94904934612E+02  0.77559193627E+02 0.  0.
         -6    2    1    2    0  502 -0.19481724233E+02 -0.54964982282E+02  0.19005618650E+02  0.18194749825E+03  0.17129796182E+03 0.  0.
        -24    2    5    5    0    0 -0.73180489024E+02 -0.11284252778E+02  0.24768341448E+02  0.11232808685E+03  0.80755247646E+02 0.  0.
          5    1    3    3  501    0 -0.14376211778E+02  0.86582975276E+02 -0.70499926874E+02  0.11267482754E+03  0.47000000000E+01 0. -1.
        -13    1    4    4    0    0 -0.21492802671E+02 -0.14762927798E+02 -0.26214374942E+02  0.36974018681E+02  0.00000000000E+00 0.  1.
         14    1    4    4    0    0  0.55350738682E+02 -0.16855065196E+02 -0.28624334422E+01  0.57930915931E+02  0.00000000000E+00 0. -1.
         -5    1    5    5    0  502  0.53698764792E+02 -0.43680729505E+02 -0.57627227977E+01  0.69619411404E+02  0.47000000000E+01 0.  1.
         13    1    6    6    0    0 -0.17412464359E+01  0.79146500905E+01  0.36535922844E+02  0.37423886533E+02  0.00000000000E+00 0. -1.
        -14    1    6    6    0    0 -0.71439242588E+02 -0.19198902868E+02 -0.11767581396E+02  0.74904200315E+02  0.00000000000E+00 0.  1.
</event>
<event>
12    1  0.1596842E-001  0.1964139E+03  0.7818608E-02  0.1152944E+00
         21   -1    0    0  503  502  0.00000000000E+00  0.00000000000E+00  0.38679537104E+03  0.38679537104E+03  0.00000000000E+00 0.  1.
         21   -1    0    0  501  503 -0.00000000000E+00 -0.00000000000E+00 -0.11983592097E+03  0.11983592097E+03  0.00000000000E+00 0.  1.
          6    2    1    2  501    0  0.69423641199E+02 -0.61718664262E+02  0.29061590837E+02  0.19855226888E+03  0.17305950404E+03 0.  0.
         24    2    3    3    0    0  0.10816428350E+03 -0.59633894711E+02  0.53476354724E+02  0.15247239990E+03  0.71640760696E+02 0.  0.
         -6    2    1    2    0  502 -0.69423641199E+02  0.61718664262E+02  0.23789785923E+03  0.30807902313E+03  0.17230338822E+03 0.  0.
        -24    2    5    5    0    0  0.19723449755E+02  0.44409560393E+02  0.66021076031E+02  0.11362973024E+03  0.78687416972E+02 0.  0.
          5    1    3    3  501    0 -0.38740642296E+02 -0.20847695509E+01 -0.24414763887E+02  0.46079868981E+02  0.47000000000E+01 0. -1.
        -11    1    4    4    0    0  0.70193400954E+02 -0.19847739652E+01  0.10097650169E+02  0.70943748168E+02  0.00000000000E+00 0.  1.
         12    1    4    4    0    0  0.37970882541E+02 -0.57649120746E+02  0.43378704555E+02  0.81528651728E+02  0.00000000000E+00 0. -1.
         -5    1    5    5    0  502 -0.89147090954E+02  0.17309103868E+02  0.17187678320E+03  0.19444929289E+03  0.47000000000E+01 0.  1.
         13    1    6    6    0    0  0.22236489097E+02 -0.18819912602E+02  0.22900744133E+02  0.37055291654E+02  0.00000000000E+00 0. -1.
        -14    1    6    6    0    0 -0.25130393419E+01  0.63229472995E+02  0.43120331898E+02  0.76574438587E+02  0.00000000000E+00 0.  1.
</event>
<event>
12    1  0.1596842E-001  0.3510974E+03  0.7818608E-02  0.1062188E+00
         21   -1    0    0  501  502  0.00000000000E+00  0.00000000000E+00  0.76087617189E+03  0.76087617189E+03  0.00000000000E+00 0. -1.
         21   -1    0    0  502  503 -0.00000000000E+00 -0.00000000000E+00 -0.29688778458E+03  0.29688778458E+03  0.00000000000E+00 0.  1.
         -6    2    1    2    0  503  0.22243488575E+03 -0.21003266258E+03 -0.12457670192E+03  0.37254358905E+03  0.17227412264E+03 0.  0.
        -24    2    3    3    0    0  0.20409349989E+03 -0.12634975326E+03 -0.13419086256E+03  0.28620844075E+03  0.79307421552E+02 0.  0.
          6    2    1    2  501    0 -0.22243488575E+03  0.21003266258E+03  0.58856508923E+03  0.68522036742E+03  0.17183448405E+03 0.  0.
         24    2    5    5    0    0 -0.11776377432E+03  0.81217812531E+02  0.41047188390E+03  0.44172788920E+03  0.78560301749E+02 0.  0.
          5    1    5    5  501    0 -0.10467111143E+03  0.12881485005E+03  0.17809320533E+03  0.24349247822E+03  0.47000000000E+01 0. -1.
        -11    1    6    6    0    0 -0.17117143161E+02 -0.15494883428E+02  0.71750098643E+02  0.75373501032E+02  0.00000000000E+00 0.  1.
         12    1    6    6    0    0 -0.10064663116E+03  0.96712695959E+02  0.33872178526E+03  0.36635438817E+03  0.00000000000E+00 0. -1.
         -5    1    3    3    0  503  0.18341385853E+02 -0.83682909320E+02  0.96141606421E+01  0.86335148301E+02  0.47000000000E+01 0.  1.
         11    1    4    4    0    0  0.57712512998E+02 -0.79688400911E+02 -0.41583479358E+02  0.10681835588E+03  0.00000000000E+00 0. -1.
        -12    1    4    4    0    0  0.14638098689E+03 -0.46661352351E+02 -0.92607383202E+02  0.17939008487E+03  0.00000000000E+00 0.  1.
</event>
<event>
12    1  0.1596842E-001  0.2583034E+03  0.7818608E-02  0.1108296E+00
         21   -1    0    0  501  502  0.00000000000E+00  0.00000000000E+00  0.37208097563E+03  0.37208097563E+03  0.00000000000E+00 0. -1.
         21   -1    0    0  502  503 -0.00000000000E+00 -0.00000000000E+00 -0.20497560975E+03  0.20497560975E+03  0.00000000000E+00 0.  1.
         -6    2    1    2    0  503  0.11992059173E+03  0.15205462565E+03 -0.19578237017E+02  0.25904426808E+03  0.17093585919E+03 0.  0.
        -24    2    3    3    0    0  0.10329975500E+03  0.18070435946E+03 -0.27972692750E+02  0.22455345266E+03  0.79478781148E+02 0.  0.
          6    2    1    2  501    0 -0.11992059173E+03 -0.15205462565E+03  0.18668360290E+03  0.31801231730E+03  0.16964524414E+03 0.  0.
         24    2    5    5    0    0 -0.36573506223E+02 -0.11162178063E+03  0.17374630908E+03  0.22435861908E+03  0.79699226902E+02 0.  0.
          5    1    5    5  501    0 -0.83347085502E+02 -0.40432845017E+02  0.12937293817E+02  0.93653698214E+02  0.47000000000E+01 0. -1.
        -13    1    6    6    0    0  0.14261632003E+02 -0.10519063966E+01  0.28849456504E+01  0.14588473733E+02  0.00000000000E+00 0.  1.
         14    1    6    6    0    0 -0.50835138226E+02 -0.11056987423E+03  0.17086136343E+03  0.20977014535E+03  0.00000000000E+00 0. -1.
         -5    1    3    3    0  503  0.16620836727E+02 -0.28649733810E+02  0.83944557337E+01  0.34490815415E+02  0.47000000000E+01 0.  1.
         13    1    4    4    0    0  0.26093192634E+02  0.12464375161E+03 -0.13740893229E+02  0.12808486118E+03  0.00000000000E+00 0. -1.
        -14    1    4    4    0    0  0.77206562363E+02  0.56060607846E+02 -0.14231799521E+02  0.96468591477E+02  0.00000000000E+00 0.  1.
</event>
<event>
12    1  0.1596842E-001  0.2425962E+03  0.7818608E-02  0.1118188E+00
         21   -1    0    0  503  502  0.00000000000E+00  0.00000000000E+00  0.36194979708E+03  0.36194979708E+03  0.00000000000E+00 0.  1.
         21   -1    0    0  501  503 -0.00000000000E+00 -0.00000000000E+00 -0.32141643681E+03  0.32141643681E+03  0.00000000000E+00 0. -1.
          6    2    1    2  501    0 -0.96325458193E+02 -0.14135309221E+03 -0.22027547212E+03  0.32717226957E+03  0.17105881968E+03 0.  0.
         24    2    3    3    0    0 -0.95498264070E+01 -0.17855377021E+02 -0.35309865117E+02  0.88391906687E+02  0.78462277053E+02 0.  0.
         -6    2    1    2    0  502  0.96325458193E+02  0.14135309221E+03  0.26080883238E+03  0.35619396433E+03  0.17202791227E+03 0.  0.
        -24    2    5    5    0    0 -0.99372781044E+01  0.85491815380E+02  0.95017785711E+02  0.15144774939E+03  0.80625313644E+02 0.  0.
          5    1    3    3  501    0 -0.86775631786E+02 -0.12349771518E+03 -0.18496560700E+03  0.23878036289E+03  0.47000000000E+01 0. -1.
        -11    1    4    4    0    0  0.24418270367E+02 -0.33824445976E+02 -0.27748972319E+02  0.50103398468E+02  0.00000000000E+00 0.  1.
         12    1    4    4    0    0 -0.33968096774E+02  0.15969068955E+02 -0.75608927981E+01  0.38288508219E+02  0.00000000000E+00 0. -1.
         -5    1    5    5    0  502  0.10626273630E+03  0.55861276825E+02  0.16579104667E+03  0.20474621494E+03  0.47000000000E+01 0.  1.
         13    1    6    6    0    0 -0.19029652893E+02  0.16873226097E+02 -0.85908383141E+01  0.26844663363E+02  0.00000000000E+00 0. -1.
        -14    1    6    6    0    0  0.90923747885E+01  0.68618589283E+02  0.10360862403E+03  0.12460308603E+03  0.00000000000E+00 0.  1.
</event>
<event>
12    1  0.1596842E-001  0.2556923E+03  0.7818608E-02  0.1110251E+00
         21   -1    0    0  503  502  0.00000000000E+00  0.00000000000E+00  0.62960398516E+03  0.62960398516E+03  0.00000000000E+00 0.  1.
         21   -1    0    0  501  503 -0.00000000000E+00 -0.00000000000E+00 -0.10325488374E+03  0.10325488374E+03  0.00000000000E+00 0.  1.
          6    2    1    2  501    0 -0.17013884975E+03  0.71921477967E+02  0.23133435453E+03  0.34245872212E+03  0.17216987420E+03 0.  0.
         24    2    3    3    0    0 -0.16175918897E+02 -0.78490435842E+00  0.89472857924E+02  0.12078875048E+03  0.79512599691E+02 0.  0.
         -6    2    1    2    0  502  0.17013884975E+03 -0.71921477967E+02  0.29501474688E+03  0.39040014678E+03  0.17680114972E+03 0.  0.
        -24    2    5    5    0    0  0.17435597219E+02  0.11343459733E+02  0.63543652060E+02  0.10082754635E+03  0.75470022236E+02 0.  0.
          5    1    3    3  501    0 -0.15396293085E+03  0.72706382325E+02  0.14186149661E+03  0.22166997164E+03  0.47000000000E+01 0. -1.
        -11    1    4    4    0    0 -0.44973295827E+02 -0.84304667288E+01  0.31325650769E+02  0.55452380499E+02  0.00000000000E+00 0.  1.
         12    1    4    4    0    0  0.28797376931E+02  0.76455623704E+01  0.58147207155E+02  0.65336369978E+02  0.00000000000E+00 0. -1.
         -5    1    5    5    0  502  0.15270325253E+03 -0.83264937700E+02  0.23147109482E+03  0.28957260043E+03  0.47000000000E+01 0.  1.
         11    1    6    6    0    0 -0.93125927255E+01 -0.28404004971E+02  0.29944884967E+02  0.42310849877E+02  0.00000000000E+00 0. -1.
        -12    1    6    6    0    0  0.26748189944E+02  0.39747464704E+02  0.33598767093E+02  0.58516696471E+02  0.00000000000E+00 0.  1.
</event>
<event>
12    1  0.1596842E-001  0.1851865E+03  0.7818608E-02  0.1162998E+00
         21   -1    0    0  501  502  0.00000000000E+00  0.00000000000E+00  0.49397289735E+03  0.49397289735E+03  0.00000000000E+00 0. -1.
         21   -1    0    0  502  503 -0.00000000000E+00 -0.00000000000E+00 -0.73822614926E+02  0.73822614926E+02  0.00000000000E+00 0. -1.
         -6    2    1    2    0  503 -0.36622811400E+02  0.61161365688E+02  0.13953209127E+03  0.23186905697E+03  0.17091551164E+03 0.  0.
        -24    2    3    3    0    0 -0.51065667301E+02  0.26697462613E+02  0.97666012069E+01  0.96748632483E+02  0.77100288594E+02 0.  0.
          6    2    1    2  501    0  0.36622811400E+02 -0.61161365688E+02  0.28061819115E+03  0.33592645530E+03  0.17034691427E+03 0.  0.
         24    2    5    5    0    0  0.78649569982E+02 -0.71340634629E+02  0.16059531935E+03  0.20826500573E+03  0.79424272146E+02 0.  0.
          5    1    5    5  501    0 -0.42026758583E+02  0.10179268942E+02  0.12002287180E+03  0.12766144957E+03  0.47000000000E+01 0. -1.
        -11    1    6    6    0    0  0.44688314374E+02  0.45482091862E+01  0.32070778932E+02  0.55192993302E+02  0.00000000000E+00 0.  1.
         12    1    6    6    0    0  0.33961255608E+02 -0.75888843816E+02  0.12852454042E+03  0.15307201243E+03  0.00000000000E+00 0. -1.
         -5    1    3    3    0  503  0.14442855901E+02  0.34463903075E+02  0.12976549007E+03  0.13512042449E+03  0.47000000000E+01 0.  1.
         11    1    4    4    0    0 -0.28265230225E+02  0.30626074267E+02 -0.29578263719E+02  0.51105316253E+02  0.00000000000E+00 0. -1.
        -12    1    4    4    0    0 -0.22800437076E+02 -0.39286116543E+01  0.39344864926E+02  0.45643316230E+02  0.00000000000E+00 0.  1.
</event>
<event>
12    1  0.1596842E-001  0.1806317E+03  0.7818608E-02  0.1167416E+00
         21   -1    0    0  503  502  0.00000000000E+00  0.00000000000E+00  0.68462501935E+02  0.68462501935E+02  0.00000000000E+00 0.  1.
         21   -1    0    0  501  503 -0.00000000000E+00 -0.00000000000E+00 -0.58688884332E+03  0.58688884332E+03  0.00000000000E+00 0.  1.
          6    2    1    2  501    0 -0.53580677141E+02  0.87394633219E+01 -0.40229571226E+03  0.44060932261E+03  0.17131102674E+03 0.  0.
         24    2    3    3    0    0  0.31449905001E+02 -0.13843926592E+02 -0.15060917693E+03  0.17394771782E+03  0.79962075583E+02 0.  0.
         -6    2    1    2    0  502  0.53580677141E+02 -0.87394633219E+01 -0.11613062912E+03  0.21474202265E+03  0.17228042863E+03 0.  0.
        -24    2    5    5    0    0  0.54796587313E+01  0.84296961824E+01 -0.13859182432E+03  0.15875020807E+03  0.76764890129E+02 0.  0.
          5    1    3    3  501    0 -0.85030582143E+02  0.22583389914E+02 -0.25168653533E+03  0.26666160478E+03  0.47000000000E+01 0. -1.
        -11    1    4    4    0    0  0.96858373993E+01 -0.31105900013E+02 -0.14075015356E+03  0.14447144420E+03  0.00000000000E+00 0.  1.
         12    1    4    4    0    0  0.21764067602E+02  0.17261973421E+02 -0.98590233731E+01  0.29476273625E+02  0.00000000000E+00 0. -1.
         -5    1    5    5    0  502  0.48101018410E+02 -0.17169159504E+02  0.22461195196E+02  0.55991814579E+02  0.47000000000E+01 0.  1.
         11    1    6    6    0    0 -0.17002985803E+02 -0.15653765543E+02 -0.11722509675E+03  0.11948165219E+03  0.00000000000E+00 0. -1.
        -12    1    6    6    0    0  0.22482644534E+02  0.24083461726E+02 -0.21366727569E+02  0.39268555881E+02  0.00000000000E+00 0.  1.
</event>
<event>
12    1  0.1596842E-001  0.1839780E+03  0.7818608E-02  0.1164024E+00
         21   -1    0    0  501  502  0.00000000000E+00  0.00000000000E+00  0.77739558186E+02  0.77739558186E+02  0.00000000000E+00 0. -1.
         21   -1    0    0  502  503 -0.00000000000E+00 -0.00000000000E+00 -0.66478474859E+03  0.66478474859E+03  0.00000000000E+00 0. -1.
         -6    2    1    2    0  503  0.46794984769E+02  0.49736435078E+02 -0.51164596816E+03  0.54369536270E+03  0.17076172616E+03 0.  0.
        -24    2    3    3    0    0 -0.20451117959E+02 -0.21397367092E+02 -0.24323968693E+03  0.25795758441E+03  0.80625520225E+02 0.  0.
          6    2    1    2  501    0 -0.46794984769E+02 -0.49736435078E+02 -0.75399222246E+02  0.19882894407E+03  0.17083448923E+03 0.  0.
         24    2    5    5    0    0 -0.71130933425E+02 -0.17762840601E+02 -0.10630718513E+03  0.14791783222E+03  0.72134175554E+02 0.  0.
          5    1    5    5  501    0  0.24335948656E+02 -0.31973594476E+02  0.30907962880E+02  0.50911111853E+02  0.47000000000E+01 0. -1.
        -13    1    6    6    0    0 -0.14141749517E+02  0.20237314590E+02 -0.60962628421E+02  0.65772182914E+02  0.00000000000E+00 0.  1.
         14    1    6    6    0    0 -0.56989183908E+02 -0.38000155191E+02 -0.45344556705E+02  0.82145649305E+02  0.00000000000E+00 0. -1.
         -5    1    3    3    0  503  0.67246102728E+02  0.71133802170E+02 -0.26840628122E+03  0.28573777829E+03  0.47000000000E+01 0.  1.
         11    1    4    4    0    0  0.26535143517E+01  0.26021730827E+02 -0.38590360486E+02  0.46619604632E+02  0.00000000000E+00 0. -1.
        -12    1    4    4    0    0 -0.23104632310E+02 -0.47419097919E+02 -0.20464932645E+03  0.21133797978E+03  0.00000000000E+00 0.  1.
</event>
<event>
12    1  0.1596842E-001  0.2210338E+03  0.7818608E-02  0.1133210E+00
         21   -1    0    0  503  502  0.00000000000E+00  0.00000000000E+00  0.77561746838E+03  0.77561746838E+03  0.00000000000E+00 0. -1.
         21   -1    0    0  501  503 -0.00000000000E+00 -0.00000000000E+00 -0.62850368853E+02  0.62850368853E+02  0.00000000000E+00 0. -1.
          6    2    1    2  501    0  0.82720459072E+02 -0.11466522418E+03  0.36036816743E+03  0.42248594354E+03  0.16922874581E+03 0.  0.
         24    2    3    3    0    0  0.11270819080E+03 -0.56919242602E+02  0.28935977517E+03  0.32605905822E+03  0.81501493873E+02 0.  0.
         -6    2    1    2    0  502 -0.82720459072E+02  0.11466522418E+03  0.35239893210E+03  0.41598189370E+03  0.16989744127E+03 0.  0.
        -24    2    5    5    0    0 -0.11217254403E+03  0.73535976350E+02  0.17991178332E+03  0.23616824897E+03  0.73600085550E+02 0.  0.
          5    1    3    3  501    0 -0.29987731729E+02 -0.57745981579E+02  0.71008392253E+02  0.96426885323E+02  0.47000000000E+01 0. -1.
        -11    1    4    4    0    0  0.42394710986E+02  0.92860856122E+01  0.15249525149E+03  0.15855076358E+03  0.00000000000E+00 0.  1.
         12    1    4    4    0    0  0.70313479815E+02 -0.66205328214E+02  0.13686452368E+03  0.16750829463E+03  0.00000000000E+00 0. -1.
         -5    1    5    5    0  502  0.29452084954E+02  0.41129247831E+02  0.17248714878E+03  0.17981364473E+03  0.47000000000E+01 0.  1.
         13    1    6    6    0    0 -0.10082365106E+03  0.59571677572E+02  0.18362983383E+03  0.21779373098E+03  0.00000000000E+00 0. -1.
        -14    1    6    6    0    0 -0.11348892961E+02  0.13964298778E+02 -0.37180505064E+01  0.18374517990E+02  0.00000000000E+00 0.  1.
</event>
<event>
12    1  0.1596842E-001  0.2806812E+03  0.7818608E-02  0.1095566E+00
         21   -1    0    0  501  502  0.00000000000E+00  0.00000000000E+00  0.48801179826E+03  0.48801179826E+03  0.00000000000E+00 0.  1.
         21   -1    0    0  502  503 -0.00000000000E+00 -0.00000000000E+00 -0.58955182882E+03  0.58955182882E+03  0.00000000000E+00 0. -1.
         -6    2    1    2    0  503  0.10003540466E+03 -0.19572979523E+03 -0.51041147954E+03  0.58162228032E+03  0.17160234147E+03 0.  0.
        -24    2    3    3    0    0  0.14867205469E+02 -0.12523272152E+03 -0.39117638937E+03  0.41894912248E+03  0.81210413674E+02 0.  0.
          6    2    1    2  501    0 -0.10003540466E+03  0.19572979523E+03  0.40887144898E+03  0.49594134675E+03  0.17454146413E+03 0.  0.
         24    2    5    5    0    0  0.12833108641E+02  0.49855843818E+02  0.15387755498E+03  0.18119940965E+03  0.80651288210E+02 0.  0.
          5    1    5    5  501    0 -0.11286851330E+03  0.14587395141E+03  0.25499389400E+03  0.31474193710E+03  0.47000000000E+01 0. -1.
        -13    1    6    6    0    0 -0.25040112526E+02  0.47299395820E+02  0.62695493376E+02  0.82431577505E+02  0.00000000000E+00 0.  1.
         14    1    6    6    0    0  0.37873221167E+02  0.25564479981E+01  0.91182061605E+02  0.98767832144E+02  0.00000000000E+00 0. -1.
         -5    1    3    3    0  503  0.85168199191E+02 -0.70497073709E+02 -0.11923509017E+03  0.16267315784E+03  0.47000000000E+01 0.  1.
         11    1    4    4    0    0  0.11453902300E+02 -0.57558259951E+01 -0.14211627532E+03  0.14269322732E+03  0.00000000000E+00 0. -1.
        -12    1    4    4    0    0  0.34133031684E+01 -0.11947689553E+03 -0.24906011405E+03  0.27625589516E+03  0.00000000000E+00 0.  1.
</event>
<event>
12    1  0.1596842E-001  0.1966834E+03  0.7818608E-02  0.1152782E+00
         21   -1    0    0  503  502  0.00000000000E+00  0.00000000000E+00  0.16258183699E+03  0.16258183699E+03  0.00000000000E+00 0. -1.
         21   -1    0    0  501  503 -0.00000000000E+00 -0.00000000000E+00 -0.37244612478E+03  0.37244612478E+03  0.00000000000E+00 0. -1.
          6    2    1    2  501    0  0.95035909201E+02  0.98868409713E+01 -0.26657804711E+03  0.33128267367E+03  0.17191504011E+03 0.  0.
         24    2    3    3    0    0  0.79389956074E+02 -0.36631004893E+02 -0.95255282275E+02  0.15300680435E+03  0.81810254445E+02 0.  0.
         -6    2    1    2    0  502 -0.95035909201E+02 -0.98868409713E+01  0.56713759313E+02  0.20374528810E+03  0.17078090721E+03 0.  0.
        -24    2    5    5    0    0 -0.58765145470E+02  0.53385140186E+02  0.70477382779E+02  0.12937836513E+03  0.73948525109E+02 0.  0.
          5    1    3    3  501    0  0.15645953127E+02  0.46517845864E+02 -0.17132276483E+03  0.17827586932E+03  0.47000000000E+01 0. -1.
        -13    1    4    4    0    0  0.61554902819E+02  0.96021985333E+01 -0.79512798710E+02  0.10101234299E+03  0.00000000000E+00 0.  1.
         14    1    4    4    0    0  0.17835053255E+02 -0.46233203427E+02 -0.15742483566E+02  0.51994461364E+02  0.00000000000E+00 0. -1.
         -5    1    5    5    0  502 -0.36270763731E+02 -0.63271981157E+02 -0.13763623466E+02  0.74366922971E+02  0.47000000000E+01 0.  1.
         11    1    6    6    0    0 -0.72581234614E+02  0.54974280241E+02  0.71000798740E+02  0.11546133781E+03  0.00000000000E+00 0. -1.
        -12    1    6    6    0    0  0.13816089143E+02 -0.15891400547E+01 -0.52341596060E+00  0.13917027326E+02  0.00000000000E+00 0.  1.
</event>
<event>
12    1  0.1596842E-001  0.2724925E+03  0.7818608E-02  0.1101148E+00
         21   -1    0    0  501  502  0.00000000000E+00  0.00000000000E+00  0.12224820729E+03  0.12224820729E+03  0.00000000000E+00 0.  1.
         21   -1    0    0  502  503 -0.00000000000E+00 -0.00000000000E+00 -0.88390352455E+03  0.88390352455E+03  0.00000000000E+00 0.  1.
         -6    2    1    2    0  503 -0.91333449783E+02  0.17709136617E+03 -0.66783809415E+03  0.71796110564E+03  0.17250298022E+03 0.  0.
        -24    2    3    3    0    0  0.14722561982E+02  0.70239598086E+02 -0.20437988110E+03  0.23064110480E+03  0.79207502499E+02 0.  0.
          6    2    1    2  501    0  0.91333449783E+02 -0.17709136617E+03 -0.93817223118E+02  0.28819062620E+03  0.18587365240E+03 0.  0.
         24    2    5    5    0    0  0.27973192707E+02 -0.18129366232E+02  0.25206830617E+02  0.79690614287E+02  0.67853049051E+02 0.  0.
          5    1    5    5  501    0  0.63360257076E+02 -0.15896199994E+03 -0.11902405374E+03  0.20850001192E+03  0.47000000000E+01 0. -1.
        -13    1    6    6    0    0 -0.16886393128E+02 -0.10374387300E+01  0.26760698153E+02  0.31660093456E+02  0.00000000000E+00 0.  1.
         14    1    6    6    0    0  0.44859585834E+02 -0.17091927502E+02 -0.15538675362E+01  0.48030520831E+02  0.00000000000E+00 0. -1.
         -5    1    3    3    0  503 -0.10605601176E+03  0.10685176809E+03 -0.46345821305E+03  0.48732000084E+03  0.47000000000E+01 0.  1.
         11    1    4    4    0    0  0.93523206665E+01 -0.20261136986E+00  0.43231890670E+01  0.10305188835E+02  0.00000000000E+00 0. -1.
        -12    1    4    4    0    0  0.53702413159E+01  0.70442209456E+02 -0.20870307017E+03  0.22033591596E+03  0.00000000000E+00 0.  1.
</event>
<event>
12    1  0.1596842E-001  0.3223148E+03  0.7818608E-02  0.1074959E+00
         21   -1    0    0  501  502  0.00000000000E+00  0.00000000000E+00  0.39357340575E+03  0.39357340575E+03  0.00000000000E+00 0. -1.
         21   -1    0    0  502  503 -0.00000000000E+00 -0.00000000000E+00 -0.27168704808E+03  0.27168704808E+03  0.00000000000E+00 0.  1.
         -6    2    1    2    0  503 -0.15849866847E+02 -0.26933396886E+03 -0.43220154743E+01  0.31911691092E+03  0.17036700960E+03 0.  0.
        -24    2    3    3    0    0 -0.47086008266E+02 -0.26286353367E+03  0.19039656784E+02  0.27929956806E+03  0.79570161990E+02 0.  0.
          6    2    1    2  501    0  0.15849866847E+02  0.26933396886E+03  0.12620837314E+03  0.34614354290E+03  0.17633715939E+03 0.  0.
         24    2    5    5    0    0  0.30077704346E+02  0.63705087124E+02  0.89528179993E+02  0.13673199849E+03  0.75613080715E+02 0.  0.
          5    1    5    5  501    0 -0.14227837499E+02  0.20562888173E+03  0.36680193152E+02  0.20941154441E+03  0.47000000000E+01 0. -1.
        -13    1    6    6    0    0  0.37178980379E+02  0.91053725708E+01  0.92381490536E+01  0.39376741734E+02  0.00000000000E+00 0.  1.
         14    1    6    6    0    0 -0.71012760334E+01  0.54599714553E+02  0.80290030939E+02  0.97355256760E+02  0.00000000000E+00 0. -1.
         -5    1    3    3    0  503  0.31236141420E+02 -0.64704351876E+01 -0.23361672258E+02  0.39817342867E+02  0.47000000000E+01 0.  1.
         13    1    4    4    0    0 -0.16634902333E+02 -0.66557777498E+01  0.11279592499E+02  0.21171881353E+02  0.00000000000E+00 0. -1.
        -14    1    4    4    0    0 -0.30451105934E+02 -0.25620775592E+03  0.77600642846E+01  0.25812768670E+03  0.00000000000E+00 0.  1.
</event>
<event>
12    1  0.1596842E-001  0.2460542E+03  0.7818608E-02  0.1116018E+00
         21   -1    0    0  503  502  0.00000000000E+00  0.00000000000E+00  0.67061231091E+03  0.67061231091E+03  0.00000000000E+00 0.  1.
         21   -1    0    0  501  503 -0.00000000000E+00 -0.00000000000E+00 -0.16615046533E+03  0.16615046533E+03  0.00000000000E+00 0. -1.
          6    2    1    2  501    0  0.15639915649E+03  0.75792581563E+02  0.53610020840E+03  0.58986955684E+03  0.17417648830E+03 0.  0.
         24    2    3    3    0    0  0.12130499636E+03  0.42976725521E+02  0.51558581602E+03  0.53741566492E+03  0.80155861581E+02 0.  0.
         -6    2    1    2    0  502 -0.15639915649E+03 -0.75792581563E+02 -0.31638362812E+02  0.24689321940E+03  0.17248206925E+03 0.  0.
        -24    2    5    5    0    0 -0.99327752292E+02 -0.55376544245E+01  0.38491499543E+02  0.13229309916E+03  0.78250882147E+02 0.  0.
          5    1    3    3  501    0  0.35094160135E+02  0.32815856042E+02  0.20514392379E+02  0.52453891925E+02  0.47000000000E+01 0. -1.
        -11    1    4    4    0    0  0.10192244690E+03  0.11920872551E+02  0.26508469222E+03  0.28425373601E+03  0.00000000000E+00 0.  1.
         12    1    4    4    0    0  0.19382549454E+02  0.31055852970E+02  0.25050112380E+03  0.25316192891E+03  0.00000000000E+00 0. -1.
         -5    1    5    5    0  502 -0.57071404199E+02 -0.70254927138E+02 -0.70129862354E+02  0.11460012024E+03  0.47000000000E+01 0.  1.
         11    1    6    6    0    0 -0.35219911955E+02  0.30532392665E+02 -0.49347012626E+01  0.46872385010E+02  0.00000000000E+00 0. -1.
        -12    1    6    6    0    0 -0.64107840337E+02 -0.36070047090E+02  0.43426200805E+02  0.85420714151E+02  0.00000000000E+00 0.  1.
</event>
<event>
12    1  0.1596842E-001  0.2210472E+03  0.7818608E-02  0.1133291E+00
         21   -1    0    0  501  502  0.00000000000E+00  0.00000000000E+00  0.21187446459E+03  0.21187446459E+03  0.00000000000E+00 0.  1.
         21   -1    0    0  502  503 -0.00000000000E+00 -0.00000000000E+00 -0.26588025275E+03  0.26588025275E+03  0.00000000000E+00 0.  1.
         -6    2    1    2    0  503  0.13089489574E+03 -0.41526843438E+02 -0.11532984372E+03  0.24932478770E+03  0.17321640931E+03 0.  0.
        -24    2    3    3    0    0  0.16306289674E+03 -0.47494642920E+02 -0.10308724494E+03  0.21407757300E+03  0.79730657804E+02 0.  0.
          6    2    1    2  501    0 -0.13089489574E+03  0.41526843438E+02  0.61324055560E+02  0.22842992965E+03  0.17193498920E+03 0.  0.
         24    2    5    5    0    0 -0.12647272309E+03  0.60959713893E+02 -0.27042066547E+01  0.16120716247E+03  0.79177017452E+02 0.  0.
          5    1    5    5  501    0 -0.44221726430E+01 -0.19432870455E+02  0.64028262215E+02  0.67222767179E+02  0.47000000000E+01 0. -1.
        -11    1    6    6    0    0 -0.11245869158E+03  0.16467313124E+02  0.57354827717E+01  0.11380257236E+03  0.00000000000E+00 0.  1.
         12    1    6    6    0    0 -0.14014031512E+02  0.44492400769E+02 -0.84396894264E+01  0.47404590105E+02  0.00000000000E+00 0. -1.
         -5    1    3    3    0  503 -0.32168001003E+02  0.59677994815E+01 -0.12242598781E+02  0.35247214700E+02  0.47000000000E+01 0.  1.
         11    1    4    4    0    0  0.92507051368E+02  0.13229023899E+02 -0.40143025624E+02  0.10170557572E+03  0.00000000000E+00 0. -1.
        -12    1    4    4    0    0  0.70555845373E+02 -0.60723666819E+02 -0.62944219316E+02  0.11237199728E+03  0.00000000000E+00 0.  1.
</event>
<event>
12    1  0.1596842E-001  0.2266527E+03  0.7818608E-02  0.1129523E+00
         21   -1    0    0  503  502  0.00000000000E+00  0.00000000000E+00  0.12602826154E+03  0.12602826154E+03  0.00000000000E+00 0. -1.
         21   -1    0    0  501  503 -0.00000000000E+00 -0.00000000000E+00 -0.44617805339E+03  0.44617805339E+03  0.00000000000E+00 0.  1.
          6    2    1    2  501    0 -0.58670250293E+02  0.12979750493E+03 -0.69765910413E+02  0.23447336683E+03  0.17268725183E+03 0.  0.
         24    2    3    3    0    0 -0.21536351475E+02  0.65684737522E+02 -0.10795775612E+03  0.15098635907E+03  0.79772829590E+02 0.  0.
         -6    2    1    2    0  502  0.58670250293E+02 -0.12979750493E+03 -0.25038388144E+03  0.33773294810E+03  0.17630049798E+03 0.  0.
        -24    2    5    5    0    0  0.97795537819E+02 -0.48889157485E+02 -0.13102683500E+03  0.18825002818E+03  0.79472792101E+02 0.  0.
          5    1    3    3  501    0 -0.37133898818E+02  0.64112767406E+02  0.38191845711E+02  0.83487007760E+02  0.47000000000E+01 0. -1.
        -11    1    4    4    0    0  0.20867763631E+02  0.15035852662E+02 -0.70508103205E+02  0.75052868312E+02  0.00000000000E+00 0.  1.
         12    1    4    4    0    0 -0.42404115106E+02  0.50648884859E+02 -0.37449652919E+02  0.75933490761E+02  0.00000000000E+00 0. -1.
         -5    1    5    5    0  502 -0.39125287526E+02 -0.80908347444E+02 -0.11935704645E+03  0.14948291992E+03  0.47000000000E+01 0.  1.
         13    1    6    6    0    0  0.84011069787E+01 -0.17108159943E+02  0.73871902762E+01  0.20441093788E+02  0.00000000000E+00 0. -1.
        -14    1    6    6    0    0  0.89394430840E+02 -0.31780997542E+02 -0.13841402527E+03  0.16780893439E+03  0.00000000000E+00 0.  1.
</event>
<event>
12    1  0.1596842E-001  0.1756433E+03  0.7818608E-02  0.1172273E+00
         21   -1    0    0  501  502  0.00000000000E+00  0.00000000000E+00  0.14163748308E+03  0.14163748308E+03  0.00000000000E+00 0.  1.
         21   -1    0    0  502  503 -0.00000000000E+00 -0.00000000000E+00 -0.42928481361E+03  0.42928481361E+03  0.00000000000E+00 0.  1.
         -6    2    1    2    0  503 -0.23653387288E+02  0.22152531991E+02 -0.34476671640E+03  0.38692977818E+03  0.17262777037E+03 0.  0.
        -24    2    3    3    0    0  0.47443463989E+02 -0.23551183766E+02 -0.17543153231E+03  0.19761499675E+03  0.73958933752E+02 0.  0.
          6    2    1    2  501    0  0.23653387288E+02 -0.22152531991E+02  0.57119385874E+02  0.18399251850E+03  0.17187322426E+03 0.  0.
         24    2    5    5    0    0  0.64340440912E+02 -0.59113236523E+02  0.47630383716E+02  0.12801340477E+03  0.80527705046E+02 0.  0.
          5    1    5    5  501    0 -0.40687053625E+02  0.36960704531E+02  0.94890021588E+01  0.55979113731E+02  0.47000000000E+01 0. -1.
        -11    1    6    6    0    0  0.64798953303E+02 -0.79311237356E+01  0.13992218880E+02  0.66765180012E+02  0.00000000000E+00 0.  1.
         12    1    6    6    0    0 -0.45851239097E+00 -0.51182112787E+02  0.33638164835E+02  0.61248224761E+02  0.00000000000E+00 0. -1.
         -5    1    3    3    0  503 -0.71096851277E+02  0.45703715758E+02 -0.16933518410E+03  0.18931478143E+03  0.47000000000E+01 0.  1.
         13    1    4    4    0    0 -0.18817026108E+01 -0.79026712027E+01  0.52477921127E+01  0.96712118636E+01  0.00000000000E+00 0. -1.
        -14    1    4    4    0    0  0.49325166600E+02 -0.15648512564E+02 -0.18067932442E+03  0.18794378489E+03  0.00000000000E+00 0.  1.
</event>
<event>
12    1  0.1596842E-001  0.1892729E+03  0.7818608E-02  0.1159310E+00
         21   -1    0    0  503  502  0.00000000000E+00  0.00000000000E+00  0.10365547728E+04  0.10365547728E+04  0.00000000000E+00 0. -1.
         21   -1    0    0  501  503 -0.00000000000E+00 -0.00000000000E+00 -0.85259217961E+02  0.85259217961E+02  0.00000000000E+00 0.  1.
          6    2    1    2  501    0  0.78784722476E+02  0.72267297218E+01  0.42890372818E+02  0.19407171217E+03  0.17194472154E+03 0.  0.
         24    2    3    3    0    0  0.32573671850E+02  0.40357569652E+02  0.81256441830E+02  0.12531737408E+03  0.80075323181E+02 0.  0.
         -6    2    1    2    0  502 -0.78784722476E+02 -0.72267297218E+01  0.90840518206E+03  0.92774227863E+03  0.17101608884E+03 0.  0.
        -24    2    5    5    0    0 -0.13986876998E+02  0.55010439530E+02  0.47561193116E+03  0.48569667686E+03  0.80453537324E+02 0.  0.
          5    1    3    3  501    0  0.46211050625E+02 -0.33130839931E+02 -0.38366069012E+02  0.68754338088E+02  0.47000000000E+01 0. -1.
        -11    1    4    4    0    0 -0.88017845584E+01 -0.25020187877E+01 -0.11734804980E+02  0.14880764676E+02  0.00000000000E+00 0.  1.
         12    1    4    4    0    0  0.41375456409E+02  0.42859588440E+02  0.92991246810E+02  0.11043660941E+03  0.00000000000E+00 0. -1.
         -5    1    5    5    0  502 -0.64797845478E+02 -0.62237169251E+02  0.43279325090E+03  0.44204560177E+03  0.47000000000E+01 0.  1.
         13    1    6    6    0    0 -0.45112707450E+02  0.14815526262E+02  0.21676733628E+03  0.22190703970E+03  0.00000000000E+00 0. -1.
        -14    1    6    6    0    0  0.31125830453E+02  0.40194913267E+02  0.25884459488E+03  0.26378963716E+03  0.00000000000E+00 0.  1.
</event>
<event>
12    1  0.1596842E-001  0.1837989E+03  0.7818608E-02  0.1164312E+00
         21   -1    0    0  501  502  0.00000000000E+00  0.00000000000E+00  0.13815588450E+03  0.13815588450E+03  0.00000000000E+00 0. -1.
         21   -1    0    0  502  503 -0.00000000000E+00 -0.00000000000E+00 -0.24896222349E+03  0.24896222349E+03  0.00000000000E+00 0.  1.
         -6    2    1    2    0  503 -0.27216960326E+01 -0.62594686012E+02 -0.83471347283E+02  0.20186502777E+03  0.17279039693E+03 0.  0.
        -24    2    3    3    0    0  0.81046019794E+01 -0.10924041139E+03 -0.57826208479E+02  0.14734167892E+03  0.79790650502E+02 0.  0.
          6    2    1    2  501    0  0.27216960326E+01  0.62594686012E+02 -0.27334991709E+02  0.18525308023E+03  0.17218013711E+03 0.  0.
         24    2    5    5    0    0 -0.26003189361E+02  0.18650948314E+02 -0.76347973324E+02  0.11327715724E+03  0.77321908867E+02 0.  0.
          5    1    5    5  501    0  0.28724885394E+02  0.43943737697E+02  0.49012981615E+02  0.71975922991E+02  0.47000000000E+01 0. -1.
        -13    1    6    6    0    0 -0.23851947775E+02 -0.14730527043E+02 -0.74698520999E+02  0.79785793717E+02  0.00000000000E+00 0.  1.
         14    1    6    6    0    0 -0.21512415859E+01  0.33381475357E+02 -0.16494523250E+01  0.33491363519E+02  0.00000000000E+00 0. -1.
         -5    1    3    3    0  503 -0.10826298012E+02  0.46645725377E+02 -0.25645138804E+02  0.54523348842E+02  0.47000000000E+01 0.  1.
         13    1    4    4    0    0  0.15113761565E+02 -0.61289074199E+02  0.10071732903E+02  0.63923518430E+02  0.00000000000E+00 0. -1.
        -14    1    4    4    0    0 -0.70091595857E+01 -0.47951337190E+02 -0.67897941382E+02  0.83418160495E+02  0.00000000000E+00 0.  1.
</event>
<event>
12    1  0.1596842E-001  0.1926083E+03  0.7818608E-02  0.1156207E+00
         21   -1    0    0  503  502  0.00000000000E+00  0.00000000000E+00  0.56281061853E+03  0.56281061853E+03  0.00000000000E+00 0. -1.
         21   -1    0    0  501  503 -0.00000000000E+00 -0.00000000000E+00 -0.10487444773E+03  0.10487444773E+03  0.00000000000E+00 0. -1.
          6    2    1    2  501    0 -0.29901498754E+02 -0.81435642043E+02  0.25051137569E+02  0.19388406162E+03  0.17157390954E+03 0.  0.
         24    2    3    3    0    0 -0.42921911299E+02 -0.99390289738E+02  0.63535257781E+02  0.14921843697E+03  0.80676469851E+02 0.  0.
         -6    2    1    2    0  502  0.29901498754E+02  0.81435642043E+02  0.43288503323E+03  0.47380100464E+03  0.17196533540E+03 0.  0.
        -24    2    5    5    0    0  0.66017711405E+02  0.10229649164E+03  0.32534192923E+03  0.35835766321E+03  0.88033706307E+02 0.  0.
          5    1    3    3  501    0  0.13020412545E+02  0.17954647694E+02 -0.38484120211E+02  0.44665624647E+02  0.47000000000E+01 0. -1.
        -11    1    4    4    0    0  0.19389754014E+02 -0.50150044714E+02  0.13795978428E+02  0.55509625889E+02  0.00000000000E+00 0.  1.
         12    1    4    4    0    0 -0.62311665314E+02 -0.49240245023E+02  0.49739279353E+02  0.93708811083E+02  0.00000000000E+00 0. -1.
         -5    1    5    5    0  502 -0.36116212651E+02 -0.20860849592E+02  0.10754310400E+03  0.11544334142E+03  0.47000000000E+01 0.  1.
         13    1    6    6    0    0 -0.18873093479E+01 -0.89144375089E+01  0.14360768828E+01  0.92245026688E+01  0.00000000000E+00 0. -1.
        -14    1    6    6    0    0  0.67905020753E+02  0.11121092914E+03  0.32390585235E+03  0.34913316054E+03  0.00000000000E+00 0.  1.
</event>
<event>
12    1  0.1596842E-001  0.2595051E+03  0.7818608E-02  0.1107623E+00
         21   -1    0    0  503  502  0.00000000000E+00  0.00000000000E+00  0.11011569081E+04  0.11011569081E+04  0.00000000000E+00 0.  1.
         21   -1    0    0  501  503 -0.00000000000E+00 -0.00000000000E+00 -0.61995921437E+02  0.61995921437E+02  0.00000000000E+00 0. -1.
          6    2    1    2  501    0 -0.13306892369E+02 -0.19185873305E+03  0.44249067066E+03  0.51297261368E+03  0.17422991113E+03 0.  0.
         24    2    3    3    0    0  0.56261067583E+02 -0.80168092581E+02  0.24577423049E+03  0.27625770487E+03  0.79505448452E+02 0.  0.
         -6    2    1    2    0  502  0.13306892369E+02  0.19185873305E+03  0.59667031604E+03  0.65018021590E+03  0.17242969659E+03 0.  0.
        -24    2    5    5    0    0  0.70655794225E+02  0.16195965075E+03  0.43530999757E+03  0.47627767409E+03  0.78246144520E+02 0.  0.
          5    1    3    3  501    0 -0.69567959952E+02 -0.11169064046E+03  0.19671644017E+03  0.23671490881E+03  0.47000000000E+01 0. -1.
        -11    1    4    4    0    0  0.32255001787E+02  0.84929035113E+01  0.51411103039E+02  0.61283081401E+02  0.00000000000E+00 0.  1.
         12    1    4    4    0    0  0.24006065796E+02 -0.88660996092E+02  0.19436312745E+03  0.21497462347E+03  0.00000000000E+00 0. -1.
         -5    1    5    5    0  502 -0.57348901856E+02  0.29899082296E+02  0.16136031848E+03  0.17390254180E+03  0.47000000000E+01 0.  1.
         11    1    6    6    0    0  0.60159930465E+02  0.52846961501E+02  0.22995213013E+03  0.24349538133E+03  0.00000000000E+00 0. -1.
        -12    1    6    6    0    0  0.10495863759E+02  0.10911268925E+03  0.20535786743E+03  0.23278229277E+03  0.00000000000E+00 0.  1.
</event>
<event>
12    1  0.1596842E-001  0.2314416E+03  0.7818608E-02  0.1125739E+00
         21   -1    0    0  501  502  0.00000000000E+00  0.00000000000E+00  0.31896292848E+03  0.31896292848E+03  0.00000000000E+00 0. -1.
         21   -1    0    0  502  503 -0.00000000000E+00 -0.00000000000E+00 -0.17010313366E+03  0.17010313366E+03  0.00000000000E+00 0. -1.
         -6    2    1    2    0  503 -0.13379635898E+03 -0.77806446150E+02  0.10469179200E+03  0.25344767672E+03  0.17123096911E+03 0.  0.
        -24    2    3    3    0    0 -0.30881293499E+02 -0.13925871645E+02  0.98482836524E+02  0.13206860261E+03  0.81213684292E+02 0.  0.
          6    2    1    2  501    0  0.13379635898E+03  0.77806446150E+02  0.44168002822E+02  0.23561838543E+03  0.17207528102E+03 0.  0.
         24    2    5    5    0    0  0.57773683279E+02  0.10446851061E+03 -0.11588965434E+01  0.14306066987E+03  0.78826036521E+02 0.  0.
          5    1    5    5  501    0  0.76022675706E+02 -0.26662064463E+02  0.45326899365E+02  0.92557715556E+02  0.47000000000E+01 0. -1.
        -13    1    6    6    0    0  0.46492654711E+02  0.88908708372E+02  0.31505751465E+02  0.10516148412E+03  0.00000000000E+00 0.  1.
         14    1    6    6    0    0  0.11281028568E+02  0.15559802241E+02 -0.32664648008E+02  0.37899185754E+02  0.00000000000E+00 0. -1.
         -5    1    3    3    0  503 -0.10291506549E+03 -0.63880574505E+02  0.62089554713E+01  0.12137907411E+03  0.47000000000E+01 0.  1.
         11    1    4    4    0    0 -0.10868664021E+02 -0.11219871905E+02 -0.12035904847E+02  0.19719949002E+02  0.00000000000E+00 0. -1.
        -12    1    4    4    0    0 -0.20012629478E+02 -0.27059997396E+01  0.11051874137E+03  0.11234865361E+03  0.00000000000E+00 0.  1.
</event>
<event>
12    1  0.1596842E-001  0.1866017E+03  0.7818608E-02  0.1162690E+00
         21   -1    0    0  501  502  0.00000000000E+00  0.00000000000E+00  0.23247870460E+02  0.23247870460E+02  0.00000000000E+00 0. -1.
         21   -1    0    0  502  503 -0.00000000000E+00 -0.00000000000E+00 -0.17528512347E+04  0.17528512347E+04  0.00000000000E+00 0. -1.
         -6    2    1    2    0  503 -0.33832463060E+02  0.50236522139E+02 -0.12375513894E+04  0.12515405046E+04  0.17649886548E+03 0.  0.
        -24    2    3    3    0    0 -0.58245189255E+02 -0.28592392349E+02 -0.68011040701E+03  0.68800477564E+03  0.81181146861E+02 0.  0.
          6    2    1    2  501    0  0.33832463060E+02 -0.50236522139E+02 -0.49205197483E+03  0.52455860056E+03  0.17140080447E+03 0.  0.
         24    2    5    5    0    0 -0.39383073089E+02 -0.56765337354E+02 -0.32069320757E+03  0.33804035137E+03  0.81570924996E+02 0.  0.
          5    1    5    5  501    0  0.73215536149E+02  0.65288152149E+01 -0.17135876726E+03  0.18651824919E+03  0.47000000000E+01 0. -1.
        -13    1    6    6    0    0  0.85129373162E+01  0.67476405315E+01 -0.14230959503E+03  0.14272358457E+03  0.00000000000E+00 0.  1.
         14    1    6    6    0    0 -0.47896010405E+02 -0.63512977885E+02 -0.17838361254E+03  0.19531676681E+03  0.00000000000E+00 0. -1.
         -5    1    3    3    0  503  0.24412726196E+02  0.78828914488E+02 -0.55744098237E+03  0.56353572893E+03  0.47000000000E+01 0.  1.
         13    1    4    4    0    0 -0.42056101612E+02  0.13951923980E+02 -0.50959983705E+03  0.51152259558E+03  0.00000000000E+00 0. -1.
        -14    1    4    4    0    0 -0.16189087644E+02 -0.42544316328E+02 -0.17051056996E+03  0.17648218006E+03  0.00000000000E+00 0.  1.
</event>
<event>
12    1  0.1596842E-001  0.2008259E+03  0.7818608E-02  0.1150216E+00
         21   -1    0    0  501  502  0.00000000000E+00  0.00000000000E+00  0.46306546177E+03  0.46306546177E+03  0.00000000000E+00 0. -1.
         21   -1    0    0  502  503 -0.00000000000E+00 -0.00000000000E+00 -0.32597446365E+03  0.32597446365E+03  0.00000000000E+00 0. -1.
         -6    2    1    2    0  503 -0.87694879533E+02 -0.23181406284E+02 -0.27059697805E+03  0.33697739942E+03  0.17917386444E+03 0.  0.
        -24    2    3    3    0    0 -0.26155736424E+02 -0.77216911745E+02 -0.19191236560E+03  0.22331007685E+03  0.79940354914E+02 0.  0.
          6    2    1    2  501    0  0.87694879533E+02  0.23181406284E+02  0.40768797618E+03  0.45206252600E+03  0.17298344429E+03 0.  0.
         24    2    5    5    0    0  0.11390137483E+02  0.66732242843E+02  0.26169786960E+03  0.28160933523E+03  0.78962746081E+02 0.  0.
          5    1    5    5  501    0  0.76304742050E+02 -0.43550836558E+02  0.14599010658E+03  0.17045319077E+03  0.47000000000E+01 0. -1.
        -11    1    6    6    0    0 -0.17299464913E+02  0.46033059896E+01  0.94482172580E+01  0.20241806285E+02  0.00000000000E+00 0.  1.
         12    1    6    6    0    0  0.28689602396E+02  0.62128936853E+02  0.25224965234E+03  0.26136752894E+03  0.00000000000E+00 0. -1.
         -5    1    3    3    0  503 -0.61539143109E+02  0.54035505461E+02 -0.78684612454E+02  0.11366732258E+03  0.47000000000E+01 0.  1.
         13    1    4    4    0    0 -0.48325663536E+02 -0.77711731800E+02 -0.16220318758E+03  0.18623736757E+03  0.00000000000E+00 0. -1.
        -14    1    4    4    0    0  0.22169927112E+02  0.49482005497E+00 -0.29709178015E+02  0.37072709280E+02  0.00000000000E+00 0.  1.
</event>
<event>
12    1  0.1596842E-001  0.1726450E+03  0.7818608E-02  0.1175449E+00
         21   -1    0    0  501  502  0.00000000000E+00  0.00000000000E+00  0.17369299428E+03  0.17369299428E+03  0.00000000000E+00 0.  1.
         21   -1    0    0  502  503 -0.00000000000E+00 -0.00000000000E+00 -0.60665893456E+03  0.60665893456E+03  0.00000000000E+00 0.  1.
         -6    2    1    2    0  503 -0.92953557067E+01  0.44939282592E+01 -0.54761348803E+03  0.57418361400E+03  0.17233598374E+03 0.  0.
        -24    2    3    3    0    0  0.39272194623E+02  0.45452888916E+02 -0.41918989397E+03  0.43082688094E+03  0.79267671559E+02 0.  0.
          6    2    1    2  501    0  0.92953557067E+01 -0.44939282592E+01  0.11464754775E+03  0.20616831483E+03  0.17104009707E+03 0.  0.
         24    2    5    5    0    0 -0.16917514112E+02 -0.50314734029E+01  0.14441408744E+03  0.16622409893E+03  0.80395922807E+02 0.  0.
          5    1    5    5  501    0  0.26212869819E+02  0.53754514365E+00 -0.29766539694E+02  0.39944215905E+02  0.47000000000E+01 0. -1.
        -11    1    6    6    0    0  0.27328137581E+02 -0.46835574968E+01  0.20030921904E+02  0.34205272207E+02  0.00000000000E+00 0.  1.
         12    1    6    6    0    0 -0.44245651693E+02 -0.34791590603E+00  0.12438316554E+03  0.13201882672E+03  0.00000000000E+00 0. -1.
         -5    1    3    3    0  503 -0.48567550329E+02 -0.40958960657E+02 -0.12842359406E+03  0.14335673306E+03  0.47000000000E+01 0.  1.
         11    1    4    4    0    0 -0.22559056822E+02  0.26426696026E+02 -0.14254705443E+03  0.14672063261E+03  0.00000000000E+00 0. -1.
        -12    1    4    4    0    0  0.61831251445E+02  0.19026192890E+02 -0.27664283954E+03  0.28410624833E+03  0.00000000000E+00 0.  1.
</event>
<event>
12    1  0.1596842E-001  0.2197220E+03  0.7818608E-02  0.1135255E+00
         21   -1    0    0  501  502  0.00000000000E+00  0.00000000000E+00  0.31930053533E+03  0.31930053533E+03  0.00000000000E+00 0. -1.
         21   -1    0    0  502  503 -0.00000000000E+00 -0.00000000000E+00 -0.15736662882E+03  0.15736662882E+03  0.00000000000E+00 0. -1.
         -6    2    1    2    0  503 -0.12605439440E+03 -0.60479019607E+01  0.14105552969E+03  0.25595543801E+03  0.17230854978E+03 0.  0.
        -24    2    3    3    0    0 -0.77165673651E+02 -0.46047072202E+02  0.14912891469E+03  0.19210161917E+03  0.81170960574E+02 0.  0.
          6    2    1    2  501    0  0.12605439440E+03  0.60479019607E+01  0.20878376811E+02  0.22071172614E+03  0.17986514941E+03 0.  0.
         24    2    5    5    0    0  0.14662478055E+02 -0.71004397863E+01  0.50672920563E+01  0.10734013217E+03  0.10597557274E+03 0.  0.
          5    1    5    5  501    0  0.11139191634E+03  0.13148341747E+02  0.15811084755E+02  0.11337159396E+03  0.47000000000E+01 0. -1.
        -13    1    6    6    0    0  0.24208758720E+02 -0.20960151611E+02 -0.44596677065E+02  0.54902236380E+02  0.00000000000E+00 0.  1.
         14    1    6    6    0    0 -0.95462806656E+01  0.13859711825E+02  0.49663969121E+02  0.52437895794E+02  0.00000000000E+00 0. -1.
         -5    1    3    3    0  503 -0.48888720744E+02  0.39999170241E+02 -0.80733850019E+01  0.63853818847E+02  0.47000000000E+01 0.  1.
         11    1    4    4    0    0 -0.19039449483E+02 -0.56369887498E+02  0.55200928114E+02  0.81161612340E+02  0.00000000000E+00 0. -1.
        -12    1    4    4    0    0 -0.58126224169E+02  0.10322815296E+02  0.93927986581E+02  0.11094000683E+03  0.00000000000E+00 0.  1.
</event>
<event>
12    1  0.1596842E-001  0.1964385E+03  0.7818608E-02  0.1153045E+00
         21   -1    0    0  503  502  0.00000000000E+00  0.00000000000E+00  0.45699196862E+02  0.45699196862E+02  0.00000000000E+00 0.  1.
         21   -1    0    0  501  503 -0.00000000000E+00 -0.00000000000E+00 -0.91635794273E+03  0.91635794273E+03  0.00000000000E+00 0.  1.
          6    2    1    2  501    0  0.35429591444E+02 -0.87421090836E+02 -0.57623669014E+03  0.60879947886E+03  0.17230896471E+03 0.  0.
         24    2    3    3    0    0  0.67667867054E+01 -0.12102345312E+03 -0.48828602178E+03  0.51026986305E+03  0.85203453321E+02 0.  0.
         -6    2    1    2    0  502 -0.35429591444E+02  0.87421090836E+02 -0.29442205573E+03  0.35325766074E+03  0.17090618742E+03 0.  0.
        -24    2    5    5    0    0 -0.30725082350E+02  0.11752989042E+03 -0.28673373390E+03  0.32147916942E+03  0.79845578371E+02 0.  0.
          5    1    3    3  501    0  0.28662804738E+02  0.33602362288E+02 -0.87950668361E+02  0.98529615811E+02  0.47000000000E+01 0. -1.
        -13    1    4    4    0    0 -0.11735069933E+02 -0.56066395678E+02 -0.36702415736E+03  0.37146720538E+03  0.00000000000E+00 0.  1.
         14    1    4    4    0    0  0.18501856638E+02 -0.64957057446E+02 -0.12126186443E+03  0.13880265767E+03  0.00000000000E+00 0. -1.
         -5    1    5    5    0  502 -0.47045090941E+01 -0.30108799581E+02 -0.76883218260E+01  0.31778491319E+02  0.47000000000E+01 0.  1.
         13    1    6    6    0    0  0.12736163272E+01  0.47242075286E+02 -0.19927844911E+03  0.20480560553E+03  0.00000000000E+00 0. -1.
        -14    1    6    6    0    0 -0.31998698677E+02  0.70287815130E+02 -0.87455284793E+02  0.11667356389E+03  0.00000000000E+00 0.  1.
</event>
<event>
12    1  0.1596842E-001  0.3508549E+03  0.7818608E-02  0.1062275E+00
         21   -1    0    0  501  502  0.00000000000E+00  0.00000000000E+00  0.15335935344E+03  0.15335935344E+03  0.00000000000E+00 0.  1.
         21   -1    0    0  502  503 -0.00000000000E+00 -0.00000000000E+00 -0.93591314880E+03  0.93591314880E+03  0.00000000000E+00 0. -1.
         -6    2    1    2    0  503 -0.64807442260E+02 -0.29872044957E+03 -0.18555344915E+03  0.39680692186E+03  0.17202249617E+03 0.  0.
        -24    2    3    3    0    0 -0.10494283871E+03 -0.27027272397E+03 -0.14909780005E+03  0.33539660114E+03  0.78742500350E+02 0.  0.
          6    2    1    2  501    0  0.64807442260E+02  0.29872044957E+03 -0.59700034621E+03  0.69246558038E+03  0.17223604463E+03 0.  0.
         24    2    5    5    0    0  0.61822883106E+02  0.11756714589E+03 -0.17896221197E+03  0.23683042073E+03  0.80106630199E+02 0.  0.
          5    1    5    5  501    0  0.29845591538E+01  0.18115330368E+03 -0.41803813425E+03  0.45563515965E+03  0.47000000000E+01 0. -1.
        -13    1    6    6    0    0  0.21666441740E+02 -0.35536247293E+01 -0.77208391390E+01  0.23273897469E+02  0.00000000000E+00 0.  1.
         14    1    6    6    0    0  0.40156441367E+02  0.12112077062E+03 -0.17124137283E+03  0.21355652326E+03  0.00000000000E+00 0. -1.
         -5    1    3    3    0  503  0.40135396449E+02 -0.28447725600E+02 -0.36455649098E+02  0.61410320722E+02  0.47000000000E+01 0.  1.
         13    1    4    4    0    0 -0.49776451110E+02 -0.77727297706E+02 -0.12929983875E+02  0.93200924763E+02  0.00000000000E+00 0. -1.
        -14    1    4    4    0    0 -0.55166387599E+02 -0.19254542626E+03 -0.13616781617E+03  0.24219567638E+03  0.00000000000E+00 0.  1.
</event>
<event>
12    1  0.1596842E-001  0.1799032E+03  0.7818608E-02  0.1167901E+00
         21   -1    0    0  501  502  0.00000000000E+00  0.00000000000E+00  0.52232294064E+03  0.52232294064E+03  0.00000000000E+00 0. -1.
         21   -1    0    0  502  503 -0.00000000000E+00 -0.00000000000E+00 -0.70583591961E+02  0.70583591961E+02  0.00000000000E+00 0. -1.
         -6    2    1    2    0  503 -0.47382557827E+02 -0.14100527212E+02  0.12224820961E+03  0.21750811881E+03  0.17297752843E+03 0.  0.
        -24    2    3    3    0    0 -0.82766950319E+02 -0.41774953152E+02  0.43030212484E+02  0.12631869974E+03  0.74224658576E+02 0.  0.
          6    2    1    2  501    0  0.47382557827E+02  0.14100527212E+02  0.32949113907E+03  0.37539841379E+03  0.17296134451E+03 0.  0.
         24    2    5    5    0    0  0.18861219405E+02  0.12774822168E+02  0.33568763748E+03  0.34580600206E+03  0.79853988174E+02 0.  0.
          5    1    5    5  501    0  0.28521338422E+02  0.13257050439E+01 -0.61964984073E+01  0.29592411726E+02  0.47000000000E+01 0. -1.
        -13    1    6    6    0    0  0.35349037067E+01  0.43679982247E+02  0.12852218274E+03  0.13578802543E+03  0.00000000000E+00 0.  1.
         14    1    6    6    0    0  0.15326315698E+02 -0.30905160079E+02  0.20716545474E+03  0.21001797664E+03  0.00000000000E+00 0. -1.
         -5    1    3    3    0  503  0.35384392492E+02  0.27674425940E+02  0.79217997125E+02  0.91189419077E+02  0.47000000000E+01 0.  1.
         11    1    4    4    0    0 -0.29959665224E+02 -0.19892236631E+02  0.57072176548E+02  0.67457512217E+02  0.00000000000E+00 0. -1.
        -12    1    4    4    0    0 -0.52807285095E+02 -0.21882716521E+02 -0.14041964064E+02  0.58861187519E+02  0.00000000000E+00 0.  1.
</event>
<event>
12    1  0.1596842E-001  0.1789250E+03  0.7818608E-02  0.1169711E+00
         21   -1    0    0  501  502  0.00000000000E+00  0.00000000000E+00  0.41412157572E+03  0.41412157572E+03  0.00000000000E+00 0.  1.
         21   -1    0    0  502  503 -0.00000000000E+00 -0.00000000000E+00 -0.76197897994E+02  0.76197897994E+02  0.00000000000E+00 0.  1.
         -6    2    1    2    0  503 -0.19779427764E+02  0.37984242209E+02  0.15289698730E+03  0.23535431413E+03  0.17372431043E+03 0.  0.
        -24    2    3    3    0    0 -0.57157027936E+02 -0.28566025712E+02  0.10329135555E+03  0.14420152012E+03  0.77730499837E+02 0.  0.
          6    2    1    2  501    0  0.19779427764E+02 -0.37984242209E+02  0.18502669042E+03  0.25496515958E+03  0.17011269210E+03 0.  0.
         24    2    5    5    0    0  0.35411486474E+02 -0.19584289731E+02  0.24185032912E+02  0.92253610201E+02  0.79298770480E+02 0.  0.
          5    1    5    5  501    0 -0.15632058710E+02 -0.18399952478E+02  0.16084165751E+03  0.16271154938E+03  0.47000000000E+01 0. -1.
        -11    1    6    6    0    0 -0.18409645936E+02 -0.38082476515E+01 -0.14819805456E+02  0.23938346798E+02  0.00000000000E+00 0.  1.
         12    1    6    6    0    0  0.53821132410E+02 -0.15776042080E+02  0.39004838368E+02  0.68315263403E+02  0.00000000000E+00 0. -1.
         -5    1    3    3    0  503  0.37377600172E+02  0.66550267922E+02  0.49605631744E+02  0.91152794010E+02  0.47000000000E+01 0.  1.
         13    1    4    4    0    0  0.73824684774E+01 -0.31165251475E+02  0.54648553162E+02  0.63342230013E+02  0.00000000000E+00 0. -1.
        -14    1    4    4    0    0 -0.64539496414E+02  0.25992257630E+01  0.48642802392E+02  0.80859290106E+02  0.00000000000E+00 0.  1.
</event>
<event>
12    1  0.1596842E-001  0.2025450E+03  0.7818608E-02  0.1147722E+00
         21   -1    0    0  503  502  0.00000000000E+00  0.00000000000E+00  0.27022890125E+03  0.27022890125E+03  0.00000000000E+00 0. -1.
         21   -1    0    0  501  503 -0.00000000000E+00 -0.00000000000E+00 -0.15500116228E+03  0.15500116228E+03  0.00000000000E+00 0. -1.
          6    2    1    2  501    0  0.10492913649E+03  0.18482376318E+02  0.89912629287E+02  0.22110921670E+03  0.17161958771E+03 0.  0.
         24    2    3    3    0    0  0.64838925354E+02  0.18437432601E+02 -0.19081066866E+02  0.10488123878E+03  0.78051021608E+02 0.  0.
         -6    2    1    2    0  502 -0.10492913649E+03 -0.18482376318E+02  0.25315109686E+02  0.20412084683E+03  0.17225778186E+03 0.  0.
        -24    2    5    5    0    0 -0.87910683928E+02 -0.61938128380E+02 -0.24138631898E+02  0.13596079495E+03  0.79611834029E+02 0.  0.
          5    1    3    3  501    0  0.40090211139E+02  0.44943716660E-01  0.10899369615E+03  0.11622797792E+03  0.47000000000E+01 0. -1.
        -13    1    4    4    0    0 -0.27012920505E+01 -0.22431300336E+02  0.32861362358E+01  0.22831095130E+02  0.00000000000E+00 0.  1.
         14    1    4    4    0    0  0.67540217405E+02  0.40868732937E+02 -0.22367203102E+02  0.82050143653E+02  0.00000000000E+00 0. -1.
         -5    1    5    5    0  502 -0.17018452566E+02  0.43455752062E+02  0.49453741584E+02  0.68160051876E+02  0.47000000000E+01 0.  1.
         11    1    6    6    0    0 -0.90591041819E+02 -0.24926974681E+02 -0.29471162555E+02  0.98471520487E+02  0.00000000000E+00 0. -1.
        -12    1    6    6    0    0  0.26803578911E+01 -0.37011153699E+02  0.53325306569E+01  0.37489274463E+02  0.00000000000E+00 0.  1.
</event>
<event>
12    1  0.1596842E-001  0.1832973E+03  0.7818608E-02  0.1164857E+00
         21   -1    0    0  501  502  0.00000000000E+00  0.00000000000E+00  0.25412985975E+03  0.25412985975E+03  0.00000000000E+00 0. -1.
         21   -1    0    0  502  503 -0.00000000000E+00 -0.00000000000E+00 -0.16748379216E+04  0.16748379216E+04  0.00000000000E+00 0. -1.
         -6    2    1    2    0  503  0.14289076917E+01 -0.63478148376E+02 -0.16360438684E+04  0.16461826622E+04  0.17101549863E+03 0.  0.
        -24    2    3    3    0    0  0.21766733285E+02 -0.23990999792E+02 -0.43131402207E+03  0.44062513359E+03  0.84079509804E+02 0.  0.
          6    2    1    2  501    0 -0.14289076917E+01  0.63478148376E+02  0.21533580653E+03  0.28278511922E+03  0.17194882082E+03 0.  0.
         24    2    5    5    0    0 -0.43851797836E+02  0.32311337598E+02  0.20814088032E+03  0.22944724651E+03  0.79727098021E+02 0.  0.
          5    1    5    5  501    0  0.42422890144E+02  0.31166810779E+02  0.71949262048E+01  0.53337872711E+02  0.47000000000E+01 0. -1.
        -11    1    6    6    0    0  0.14273902965E+02 -0.22219930111E+01  0.48976032333E+01  0.15253461123E+02  0.00000000000E+00 0.  1.
         12    1    6    6    0    0 -0.58125700801E+02  0.34533330609E+02  0.20324327709E+03  0.21419378539E+03  0.00000000000E+00 0. -1.
         -5    1    3    3    0  503 -0.20337825594E+02 -0.39487148585E+02 -0.12047298463E+04  0.12055575286E+04  0.47000000000E+01 0.  1.
         11    1    4    4    0    0 -0.12267200062E+01 -0.25953773752E+01 -0.38293009698E+03  0.38294085705E+03  0.00000000000E+00 0. -1.
        -12    1    4    4    0    0  0.22993453291E+02 -0.21395622416E+02 -0.48383925090E+02  0.57684276540E+02  0.00000000000E+00 0.  1.
</event>
<event>
12    1  0.1596842E-001  0.2235747E+03  0.7818608E-02  0.1131406E+00
         21   -1    0    0  501  502  0.00000000000E+00  0.00000000000E+00  0.11090089559E+03  0.11090089559E+03  0.00000000000E+00 0.  1.
         21   -1    0    0  502  503 -0.00000000000E+00 -0.00000000000E+00 -0.57249667887E+03  0.57249667887E+03  0.00000000000E+00 0.  1.
         -6    2    1    2    0  503  0.83895258444E+02 -0.11341100586E+03 -0.38988466553E+03  0.44943929164E+03  0.17345072445E+03 0.  0.
        -24    2    3    3    0    0  0.45625445983E+02 -0.35522599717E+02 -0.76894538000E+02  0.12460688517E+03  0.79186927243E+02 0.  0.
          6    2    1    2  501    0 -0.83895258444E+02  0.11341100586E+03 -0.71711117754E+02  0.23395828282E+03  0.17231808683E+03 0.  0.
         24    2    5    5    0    0 -0.55855920148E+02  0.14353524811E+03 -0.31144722554E+02  0.17598072783E+03  0.79227340994E+02 0.  0.
          5    1    5    5  501    0 -0.28039338296E+02 -0.30124242242E+02 -0.40566395200E+02  0.57977554987E+02  0.47000000000E+01 0. -1.
        -11    1    6    6    0    0 -0.57746686461E+02  0.15254019082E+03 -0.33439880477E+02  0.16649749313E+03  0.00000000000E+00 0.  1.
         12    1    6    6    0    0  0.18907663126E+01 -0.90049427133E+01  0.22951579227E+01  0.94832347018E+01  0.00000000000E+00 0. -1.
         -5    1    3    3    0  503  0.38269812462E+02 -0.77888406146E+02 -0.31299012754E+03  0.32483240647E+03  0.47000000000E+01 0.  1.
         11    1    4    4    0    0 -0.11079399542E+02  0.17265668783E+02 -0.14296932792E+02  0.25005173465E+02  0.00000000000E+00 0. -1.
        -12    1    4    4    0    0  0.56704845525E+02 -0.52788268500E+02 -0.62597605208E+02  0.99601711707E+02  0.00000000000E+00 0.  1.
</event>
<event>
12    1  0.1596842E-001  0.3094573E+03  0.7818608E-02  0.1080615E+00
         21   -1    0    0  501  502  0.00000000000E+00  0.00000000000E+00  0.91504545908E+03  0.91504545908E+03  0.00000000000E+00 0.  1.
         21   -1    0    0  502  503 -0.00000000000E+00 -0.00000000000E+00 -0.16279434910E+03  0.16279434910E+03  0.00000000000E+00 0.  1.
         -6    2    1    2    0  503  0.12271077477E+03  0.22509155362E+03  0.54023433152E+02  0.31413743692E+03  0.17331952051E+03 0.  0.
        -24    2    3    3    0    0  0.14105531689E+03  0.11910781737E+03  0.25723187651E+02  0.20281776898E+03  0.79938041315E+02 0.  0.
          6    2    1    2  501    0 -0.12271077477E+03 -0.22509155362E+03  0.69822767683E+03  0.76370237126E+03  0.17319145882E+03 0.  0.
         24    2    5    5    0    0 -0.45259053152E+02 -0.19545862056E+03  0.58271371349E+03  0.62142642238E+03  0.79768867921E+02 0.  0.
          5    1    5    5  501    0 -0.77451721618E+02 -0.29632933062E+02  0.11551396334E+03  0.14227594888E+03  0.47000000000E+01 0. -1.
        -13    1    6    6    0    0  0.16283018411E+02 -0.10010104232E+03  0.30491974602E+03  0.32134312949E+03  0.00000000000E+00 0.  1.
         14    1    6    6    0    0 -0.61542071563E+02 -0.95357578234E+02  0.27779396748E+03  0.30008329288E+03  0.00000000000E+00 0. -1.
         -5    1    3    3    0  503 -0.18344542121E+02  0.10598373625E+03  0.28300245500E+02  0.11131966794E+03  0.47000000000E+01 0.  1.
         13    1    4    4    0    0  0.69399908152E+02  0.65946271203E+02 -0.26629490382E+02  0.99369953683E+02  0.00000000000E+00 0. -1.
        -14    1    4    4    0    0  0.71655408739E+02  0.53161546165E+02  0.52352678033E+02  0.10344781530E+03  0.00000000000E+00 0.  1.
</event>
<event>
12    1  0.1596842E-001  0.2475637E+03  0.7818608E-02  0.1114871E+00
         21   -1    0    0  503  502  0.00000000000E+00  0.00000000000E+00  0.26923359908E+03  0.26923359908E+03  0.00000000000E+00 0. -1.
         21   -1    0    0  501  503 -0.00000000000E+00 -0.00000000000E+00 -0.23888567014E+03  0.23888567014E+03  0.00000000000E+00 0.  1.
          6    2    1    2  501    0  0.10408407098E+03 -0.14523242816E+03 -0.40189874366E+02  0.25080468662E+03  0.17135288970E+03 0.  0.
         24    2    3    3    0    0  0.19675145531E+02 -0.37241957969E+02 -0.69440978721E+02  0.11057442793E+03  0.75037189451E+02 0.  0.
         -6    2    1    2    0  502 -0.10408407098E+03  0.14523242816E+03  0.70537803298E+02  0.25731458259E+03  0.17119947634E+03 0.  0.
        -24    2    5    5    0    0 -0.10421605686E+03  0.85163340014E+02  0.10452572628E+03  0.18813668382E+03  0.79724546743E+02 0.  0.
          5    1    3    3  501    0  0.84408925454E+02 -0.10799047019E+03  0.29251104356E+02  0.14023025870E+03  0.47000000000E+01 0. -1.
        -13    1    4    4    0    0 -0.15786295430E+01 -0.55279912272E+02 -0.31992714392E+02  0.63889706105E+02  0.00000000000E+00 0.  1.
         14    1    4    4    0    0  0.21253775074E+02  0.18037954303E+02 -0.37448264330E+02  0.46684721822E+02  0.00000000000E+00 0. -1.
         -5    1    5    5    0  502  0.13198587511E+00  0.60069088145E+02 -0.33987922982E+02  0.69177898779E+02  0.47000000000E+01 0.  1.
         13    1    6    6    0    0 -0.26932777693E+02  0.11880325506E+02 -0.10614211208E+02  0.31291822061E+02  0.00000000000E+00 0. -1.
        -14    1    6    6    0    0 -0.77283279167E+02  0.73283014508E+02  0.11513993749E+03  0.15684486175E+03  0.00000000000E+00 0.  1.
</event>
<event>
12    1  0.1596842E-001  0.3082998E+03  0.7818608E-02  0.1081319E+00
         21   -1    0    0  501  502  0.00000000000E+00  0.00000000000E+00  0.92027774179E+02  0.92027774179E+02  0.00000000000E+00 0. -1.
         21   -1    0    0  502  503 -0.00000000000E+00 -0.00000000000E+00 -0.11155967666E+04  0.11155967666E+04  0.00000000000E+00 0. -1.
         -6    2    1    2    0  503  0.25038293376E+03 -0.53894106661E+02 -0.68144987784E+03  0.74794567242E+03  0.17161761168E+03 0.  0.
        -24    2    3    3    0    0  0.18156487529E+03  0.22656833514E+02 -0.51612369085E+03  0.55313599680E+03  0.78080923733E+02 0.  0.
          6    2    1    2  501    0 -0.25038293376E+03  0.53894106661E+02 -0.34211911460E+03  0.45967886837E+03  0.16930146249E+03 0.  0.
         24    2    5    5    0    0 -0.19431106648E+03  0.10001460194E+03 -0.27676125570E+03  0.36187859176E+03  0.81237992102E+02 0.  0.
          5    1    5    5  501    0 -0.56071867279E+02 -0.46120495281E+02 -0.65357858900E+02  0.97800276610E+02  0.47000000000E+01 0. -1.
        -13    1    6    6    0    0 -0.17041641673E+02  0.23946842704E+02 -0.69490198665E+01  0.30201948671E+02  0.00000000000E+00 0.  1.
         14    1    6    6    0    0 -0.17726942481E+03  0.76067759237E+02 -0.26981223583E+03  0.33167664309E+03  0.00000000000E+00 0. -1.
         -5    1    3    3    0  503  0.68818058473E+02 -0.76550940175E+02 -0.16532618698E+03  0.19480967562E+03  0.47000000000E+01 0.  1.
         13    1    4    4    0    0  0.16089562370E+03 -0.67346223659E+01 -0.38856694693E+03  0.42061506049E+03  0.00000000000E+00 0. -1.
        -14    1    4    4    0    0  0.20669251590E+02  0.29391455880E+02 -0.12755674392E+03  0.13252093631E+03  0.00000000000E+00 0.  1.
</event>
<event>
12    1  0.1596842E-001  0.1817793E+03  0.7818608E-02  0.1166535E+00
         21   -1    0    0  501  502  0.00000000000E+00  0.00000000000E+00  0.30658202306E+03  0.30658202306E+03  0.00000000000E+00 0.  1.
         21   -1    0    0  502  503 -0.00000000000E+00 -0.00000000000E+00 -0.15494521156E+03  0.15494521156E+03  0.00000000000E+00 0.  1.
         -6    2    1    2    0  503 -0.21961885276E+02  0.53137208755E+02 -0.53228743434E+02  0.18764110132E+03  0.17049925635E+03 0.  0.
        -24    2    3    3    0    0  0.96992488136E+01  0.60657082579E+02 -0.88168142795E+02  0.13966373643E+03  0.89213119971E+02 0.  0.
          6    2    1    2  501    0  0.21961885276E+02 -0.53137208755E+02  0.20486555494E+03  0.27388613330E+03  0.17244660349E+03 0.  0.
         24    2    5    5    0    0  0.15798805807E+01 -0.78340388879E+02  0.71341003832E+02  0.13640332655E+03  0.85887229047E+02 0.  0.
          5    1    5    5  501    0  0.20382004695E+02  0.25203180124E+02  0.13352455111E+03  0.13748280675E+03  0.47000000000E+01 0. -1.
        -13    1    6    6    0    0 -0.38062575000E+02 -0.17768106860E+02  0.38234014114E+02  0.56800572817E+02  0.00000000000E+00 0.  1.
         14    1    6    6    0    0  0.39642455581E+02 -0.60572282019E+02  0.33106989718E+02  0.79602753732E+02  0.00000000000E+00 0. -1.
         -5    1    3    3    0  503 -0.31661134089E+02 -0.75198738239E+01  0.34939399360E+02  0.47977364890E+02  0.47000000000E+01 0.  1.
         11    1    4    4    0    0  0.32727961952E+01  0.21450244224E+02  0.16791155955E+02  0.27436601293E+02  0.00000000000E+00 0. -1.
        -12    1    4    4    0    0  0.64264526184E+01  0.39206838355E+02 -0.10495929875E+03  0.11222713514E+03  0.00000000000E+00 0.  1.
</event>
<event>
12    1  0.1596842E-001  0.5406749E+03  0.7818608E-02  0.1003686E+00
         21   -1    0    0  503  502  0.00000000000E+00  0.00000000000E+00  0.10139714124E+04  0.10139714124E+04  0.00000000000E+00 0. -1.
         21   -1    0    0  501  503 -0.00000000000E+00 -0.00000000000E+00 -0.13887432247E+04  0.13887432247E+04  0.00000000000E+00 0.  1.
          6    2    1    2  501    0  0.35952938471E+03  0.36507575810E+03 -0.12568345586E+04  0.13681306258E+04  0.17206572587E+03 0.  0.
         24    2    3    3    0    0  0.99656418139E+02  0.11282678613E+03 -0.52184022058E+03  0.54873922391E+03  0.78334122189E+02 0.  0.
         -6    2    1    2    0  502 -0.35952938471E+03 -0.36507575810E+03  0.88206274631E+03  0.10345840113E+04  0.17259113656E+03 0.  0.
        -24    2    5    5    0    0 -0.36062970141E+03 -0.30552852592E+03  0.80942168449E+03  0.94053138020E+03  0.77681092508E+02 0.  0.
          5    1    3    3  501    0  0.25987296657E+03  0.25224897198E+03 -0.73499433802E+03  0.81939140192E+03  0.47000000000E+01 0. -1.
        -13    1    4    4    0    0  0.34477028777E+02 -0.29512855746E+01 -0.75671740437E+02  0.83208099970E+02  0.00000000000E+00 0.  1.
         14    1    4    4    0    0  0.65179389362E+02  0.11577807170E+03 -0.44616848014E+03  0.46553112394E+03  0.00000000000E+00 0. -1.
         -5    1    5    5    0  502  0.11003166934E+01 -0.59547232184E+02  0.72641061820E+02  0.94052631117E+02  0.47000000000E+01 0.  1.
         11    1    6    6    0    0 -0.17594533764E+03 -0.14403462323E+03  0.46558104119E+03  0.51813940252E+03  0.00000000000E+00 0. -1.
        -12    1    6    6    0    0 -0.18468436377E+03 -0.16149390269E+03  0.34384064330E+03  0.42239197768E+03  0.00000000000E+00 0.  1.
</event>
<event>
12    1  0.1596842E-001  0.2035739E+03  0.7818608E-02  0.1147488E+00
         21   -1    0    0  501  502  0.00000000000E+00  0.00000000000E+00  0.11075622416E+03  0.11075622416E+03  0.00000000000E+00 0. -1.
         21   -1    0    0  502  503 -0.00000000000E+00 -0.00000000000E+00 -0.42099236827E+03  0.42099236827E+03  0.00000000000E+00 0. -1.
         -6    2    1    2    0  503 -0.39393599785E+02  0.96857860050E+02 -0.24848141194E+03  0.31901408046E+03  0.17056866855E+03 0.  0.
        -24    2    3    3    0    0 -0.63369938867E+02  0.15560349666E+02 -0.19219192928E+03  0.21715758391E+03  0.77212725212E+02 0.  0.
          6    2    1    2  501    0  0.39393599785E+02 -0.96857860050E+02 -0.61754732162E+02  0.21273451197E+03  0.17466832822E+03 0.  0.
         24    2    5    5    0    0  0.85959546836E+02 -0.26027083322E+02 -0.36170617047E+02  0.12406646078E+03  0.77573967244E+02 0.  0.
          5    1    5    5  501    0 -0.46565947051E+02 -0.70830776729E+02 -0.25584115115E+02  0.88668051196E+02  0.47000000000E+01 0. -1.
        -13    1    6    6    0    0 -0.13087133359E+02 -0.33984258050E+01 -0.15167801063E+02  0.20319560690E+02  0.00000000000E+00 0.  1.
         14    1    6    6    0    0  0.99046680196E+02 -0.22628657517E+02 -0.21002815984E+02  0.10374690009E+03  0.00000000000E+00 0. -1.
         -5    1    3    3    0  503  0.23976339082E+02  0.81297510384E+02 -0.56289482659E+02  0.10185649655E+03  0.47000000000E+01 0.  1.
         11    1    4    4    0    0 -0.22423204458E+02  0.35534824848E+02 -0.38977000352E+02  0.57312567833E+02  0.00000000000E+00 0. -1.
        -12    1    4    4    0    0 -0.40946734410E+02 -0.19974475182E+02 -0.15321492893E+03  0.15984501608E+03  0.00000000000E+00 0.  1.
</event>
<event>
12    1  0.1596842E-001  0.1940102E+03  0.7818608E-02  0.1154990E+00
         21   -1    0    0  501  502  0.00000000000E+00  0.00000000000E+00  0.10681576377E+03  0.10681576377E+03  0.00000000000E+00 0.  1.
         21   -1    0    0  502  503 -0.00000000000E+00 -0.00000000000E+00 -0.43949610724E+03  0.43949610724E+03  0.00000000000E+00 0.  1.
         -6    2    1    2    0  503 -0.88665513860E+02 -0.12763681889E+02 -0.44023892281E+02  0.19851523549E+03  0.17159752535E+03 0.  0.
        -24    2    3    3    0    0 -0.23480175474E+02 -0.67763503778E+02 -0.31648345354E+02  0.11220560155E+03  0.80282427535E+02 0.  0.
          6    2    1    2  501    0  0.88665513860E+02  0.12763681889E+02 -0.28865645119E+03  0.34779663552E+03  0.17209145226E+03 0.  0.
         24    2    5    5    0    0  0.47929809001E+02 -0.90202508796E+01 -0.28663692977E+03  0.30131969668E+03  0.79083491241E+02 0.  0.
          5    1    5    5  501    0  0.40735704859E+02  0.21783932768E+02 -0.20195214278E+01  0.46476938841E+02  0.47000000000E+01 0. -1.
        -13    1    6    6    0    0  0.30512111719E+02  0.21052265556E+02 -0.24163025576E+03  0.24445729145E+03  0.00000000000E+00 0.  1.
         14    1    6    6    0    0  0.17417697282E+02 -0.30072516436E+02 -0.45006674009E+02  0.56862405232E+02  0.00000000000E+00 0. -1.
         -5    1    3    3    0  503 -0.65185338386E+02  0.54999821889E+02 -0.12375546927E+02  0.86309633936E+02  0.47000000000E+01 0.  1.
         13    1    4    4    0    0 -0.17289022442E+02  0.77067876491E+01  0.14218174683E+02  0.23674065223E+02  0.00000000000E+00 0. -1.
        -14    1    4    4    0    0 -0.61911530314E+01 -0.75470291427E+02 -0.45866520038E+02  0.88531536326E+02  0.00000000000E+00 0.  1.
</event>
<event>
12    1  0.1596842E-001  0.1931477E+03  0.7818608E-02  0.1156286E+00
         21   -1    0    0  503  502  0.00000000000E+00  0.00000000000E+00  0.15009415969E+03  0.15009415969E+03  0.00000000000E+00 0.  1.
         21   -1    0    0  501  503 -0.00000000000E+00 -0.00000000000E+00 -0.35112871288E+03  0.35112871288E+03  0.00000000000E+00 0.  1.
          6    2    1    2  501    0  0.81858383743E+02  0.28263708534E+02 -0.23887838270E+03  0.30719524798E+03  0.17264531981E+03 0.  0.
         24    2    3    3    0    0  0.11743842051E+03  0.11680329455E+02 -0.13950259974E+03  0.20024393328E+03  0.81905096131E+02 0.  0.
         -6    2    1    2    0  502 -0.81858383743E+02 -0.28263708534E+02  0.37843829508E+02  0.19402762458E+03  0.16945480654E+03 0.  0.
        -24    2    5    5    0    0 -0.14280105793E+01 -0.60721718525E+02 -0.24345266408E+01  0.98283155739E+02  0.77230081362E+02 0.  0.
          5    1    3    3  501    0 -0.35580036769E+02  0.16583379078E+02 -0.99375782960E+02  0.10695131470E+03  0.47000000000E+01 0. -1.
        -11    1    4    4    0    0  0.79104844937E+02 -0.29800895846E+02 -0.10186352689E+03  0.13237011746E+03  0.00000000000E+00 0.  1.
         12    1    4    4    0    0  0.38333575575E+02  0.41481225302E+02 -0.37639072852E+02  0.67873815820E+02  0.00000000000E+00 0. -1.
         -5    1    5    5    0  502 -0.80430373164E+02  0.32458009992E+02  0.40278356149E+02  0.95744468842E+02  0.47000000000E+01 0.  1.
         13    1    6    6    0    0 -0.25259053358E+01 -0.47881681196E+02 -0.37534454879E+02  0.60892289290E+02  0.00000000000E+00 0. -1.
        -14    1    6    6    0    0  0.10978947566E+01 -0.12840037329E+02  0.35099928238E+02  0.37390866449E+02  0.00000000000E+00 0.  1.
</event>
<event>
12    1  0.1596842E-001  0.2437869E+03  0.7818608E-02  0.1117520E+00
         21   -1    0    0  501  502  0.00000000000E+00  0.00000000000E+00  0.24447623490E+03  0.24447623490E+03  0.00000000000E+00 0.  1.
         21   -1    0    0  502  503 -0.00000000000E+00 -0.00000000000E+00 -0.52889861581E+03  0.52889861581E+03  0.00000000000E+00 0. -1.
         -6    2    1    2    0  503  0.16479262303E+03  0.43714598521E+02 -0.42695720127E+03  0.49097752713E+03  0.17233370449E+03 0.  0.
        -24    2    3    3    0    0  0.16618662553E+03 -0.11999442738E+02 -0.34841123294E+03  0.39455368787E+03  0.80748029340E+02 0.  0.
          6    2    1    2  501    0 -0.16479262303E+03 -0.43714598521E+02  0.14253482036E+03  0.28239732358E+03  0.17425412082E+03 0.  0.
         24    2    5    5    0    0 -0.19182972905E+03 -0.44302781965E+02  0.10802833109E+03  0.23830493349E+03  0.79735434875E+02 0.  0.
          5    1    5    5  501    0  0.27037106019E+02  0.58818344381E+00  0.34506489272E+02  0.44092390086E+02  0.47000000000E+01 0. -1.
        -11    1    6    6    0    0 -0.52050053258E+02 -0.18633341005E+02 -0.66582661148E+01  0.55684306127E+02  0.00000000000E+00 0.  1.
         12    1    6    6    0    0 -0.13977967579E+03 -0.25669440961E+02  0.11468659720E+03  0.18262062737E+03  0.00000000000E+00 0. -1.
         -5    1    3    3    0  503 -0.13940025047E+01  0.55714041259E+02 -0.78545968323E+02  0.96423839253E+02  0.47000000000E+01 0.  1.
         11    1    4    4    0    0  0.85320627237E+02  0.28435031082E+02 -0.12909948972E+03  0.15733670478E+03  0.00000000000E+00 0. -1.
        -12    1    4    4    0    0  0.80865998295E+02 -0.40434473820E+02 -0.21931174322E+03  0.23721698309E+03  0.00000000000E+00 0.  1.
</event>
<event>
12    1  0.1596842E-001  0.2771577E+03  0.7818608E-02  0.1097316E+00
         21   -1    0    0  501  502  0.00000000000E+00  0.00000000000E+00  0.14531360540E+04  0.14531360540E+04  0.00000000000E+00 0.  1.
         21   -1    0    0  502  503 -0.00000000000E+00 -0.00000000000E+00 -0.24434188638E+03  0.24434188638E+03  0.00000000000E+00 0. -1.
         -6    2    1    2    0  503 -0.77289883876E+02  0.20420586374E+03 -0.14700681376E+03  0.31373139464E+03  0.17071210782E+03 0.  0.
        -24    2    3    3    0    0 -0.52110104953E+02  0.28904990919E+02 -0.48669591154E+02  0.11110682400E+03  0.80156320384E+02 0.  0.
          6    2    1    2  501    0  0.77289883876E+02 -0.20420586374E+03  0.13558009814E+04  0.13837465458E+04  0.16995423139E+03 0.  0.
         24    2    5    5    0    0 -0.26204127662E+02 -0.41529739563E+02  0.56095519862E+03  0.56583674619E+03  0.55579788692E+02 0.  0.
          5    1    5    5  501    0  0.10349401154E+03 -0.16267612418E+03  0.79484578279E+03  0.81790979956E+03  0.47000000000E+01 0. -1.
        -13    1    6    6    0    0 -0.52043284187E+01 -0.48418107813E+02  0.29781370871E+03  0.30176879112E+03  0.00000000000E+00 0.  1.
         14    1    6    6    0    0 -0.20999799243E+02  0.68883682501E+01  0.26314148991E+03  0.26406795507E+03  0.00000000000E+00 0. -1.
         -5    1    3    3    0  503 -0.25179778923E+02  0.17530087282E+03 -0.98337222609E+02  0.20262457065E+03  0.47000000000E+01 0.  1.
         13    1    4    4    0    0 -0.50445608797E+01  0.39150085442E+02 -0.49020359822E+02  0.62937846020E+02  0.00000000000E+00 0. -1.
        -14    1    4    4    0    0 -0.47065544074E+02 -0.10245094523E+02  0.35076866745E+00  0.48168977978E+02  0.00000000000E+00 0.  1.
</event>
<event>
12    1  0.1596842E-001  0.1723445E+03  0.7818608E-02  0.1175461E+00
         21   -1    0    0  503  502  0.00000000000E+00  0.00000000000E+00  0.14523485640E+03  0.14523485640E+03  0.00000000000E+00 0. -1.
         21   -1    0    0  501  503 -0.00000000000E+00 -0.00000000000E+00 -0.41055939829E+03  0.41055939829E+03  0.00000000000E+00 0.  1.
          6    2    1    2  501    0 -0.12594786118E+02  0.15805296771E+02 -0.32963744895E+03  0.37197239052E+03  0.17115541334E+03 0.  0.
         24    2    3    3    0    0 -0.45848784198E+02  0.44309528646E+01 -0.32259303230E+03  0.33582107113E+03  0.81165158618E+02 0.  0.
         -6    2    1    2    0  502  0.12594786118E+02 -0.15805296771E+02  0.64312907065E+02  0.18382186417E+03  0.17101430259E+03 0.  0.
        -24    2    5    5    0    0  0.37281782354E+02  0.42540276379E+02  0.72175158449E+02  0.11980968810E+03  0.77107077850E+02 0.  0.
          5    1    3    3  501    0  0.33253998080E+02  0.11374343906E+02 -0.70444166542E+01  0.36151319390E+02  0.47000000000E+01 0. -1.
        -13    1    4    4    0    0  0.13231306037E+01  0.27047173684E+02 -0.20916570042E+03  0.21091133330E+03  0.00000000000E+00 0.  1.
         14    1    4    4    0    0 -0.47171914802E+02 -0.22616220819E+02 -0.11342733187E+03  0.12490973784E+03  0.00000000000E+00 0. -1.
         -5    1    5    5    0  502 -0.24686996236E+02 -0.58345573150E+02 -0.78622513841E+01  0.64012176077E+02  0.47000000000E+01 0.  1.
         11    1    6    6    0    0  0.48489065814E+02  0.17227276709E+02  0.10940988304E+02  0.52608685513E+02  0.00000000000E+00 0. -1.
        -12    1    6    6    0    0 -0.11207283460E+02  0.25312999670E+02  0.61234170145E+02  0.67201002583E+02  0.00000000000E+00 0.  1.
</event>
<event>
12    1  0.1596842E-001  0.2039451E+03  0.7818608E-02  0.1147052E+00
         21   -1    0    0  501  502  0.00000000000E+00  0.00000000000E+00  0.26430340136E+03  0.26430340136E+03  0.00000000000E+00 0. -1.
         21   -1    0    0  502  503 -0.00000000000E+00 -0.00000000000E+00 -0.18086372462E+03  0.18086372462E+03  0.00000000000E+00 0. -1.
         -6    2    1    2    0  503 -0.24926215684E+02  0.10387896552E+03 -0.41957005775E+02  0.20821622940E+03  0.17372809833E+03 0.  0.
        -24    2    3    3    0    0  0.44840341837E+02  0.58491696549E+02 -0.56224553933E+02  0.12364064390E+03  0.81816095835E+02 0.  0.
          6    2    1    2  501    0  0.24926215684E+02 -0.10387896552E+03  0.12539668251E+03  0.23695089658E+03  0.17032100193E+03 0.  0.
         24    2    5    5    0    0  0.43141116753E+02  0.21347559288E+01  0.35396003263E+02  0.96619488755E+02  0.78846277164E+02 0.  0.
          5    1    5    5  501    0 -0.18214901070E+02 -0.10601372145E+03  0.90000679251E+02  0.14033140783E+03  0.47000000000E+01 0. -1.
        -11    1    6    6    0    0 -0.15257777036E+02 -0.41417820114E+01 -0.13036122573E+02  0.20491330119E+02  0.00000000000E+00 0.  1.
         12    1    6    6    0    0  0.58398893789E+02  0.62765379401E+01  0.48432125836E+02  0.76128158636E+02  0.00000000000E+00 0. -1.
         -5    1    3    3    0  503 -0.69766557521E+02  0.45387268972E+02  0.14267548159E+02  0.84575585504E+02  0.47000000000E+01 0.  1.
         13    1    4    4    0    0 -0.19540916139E+02  0.26123758445E+02 -0.63358533023E+00  0.32629734740E+02  0.00000000000E+00 0. -1.
        -14    1    4    4    0    0  0.64381257976E+02  0.32367938105E+02 -0.55590968603E+02  0.91010909159E+02  0.00000000000E+00 0.  1.
</event>
<event>
12    1  0.1596842E-001  0.2001545E+03  0.7818608E-02  0.1149770E+00
         21   -1    0    0  501  502  0.00000000000E+00  0.00000000000E+00  0.14071514703E+03  0.14071514703E+03  0.00000000000E+00 0. -1.
         21   -1    0    0  502  503 -0.00000000000E+00 -0.00000000000E+00 -0.44377566036E+03  0.44377566036E+03  0.00000000000E+00 0. -1.
         -6    2    1    2    0  503 -0.10064046027E+03  0.12424855675E+02 -0.32691155511E+03  0.38292020636E+03  0.17167946963E+03 0.  0.
        -24    2    3    3    0    0 -0.13528816133E+03  0.14580733825E+02 -0.29729563236E+03  0.33704751426E+03  0.81858716423E+02 0.  0.
          6    2    1    2  501    0  0.10064046027E+03 -0.12424855675E+02  0.23851041774E+02  0.20157060104E+03  0.17256580116E+03 0.  0.
         24    2    5    5    0    0  0.22599470077E+02 -0.58918771417E+02 -0.16032457052E+02  0.10224858017E+03  0.78838916756E+02 0.  0.
          5    1    5    5  501    0  0.78040990189E+02  0.46493915742E+02  0.39883498825E+02  0.99322020868E+02  0.47000000000E+01 0. -1.
        -11    1    6    6    0    0 -0.28734609328E+02 -0.29175927560E+02 -0.63530294063E+00  0.40955050141E+02  0.00000000000E+00 0.  1.
         12    1    6    6    0    0  0.51334079405E+02 -0.29742843857E+02 -0.15397154111E+02  0.61293530032E+02  0.00000000000E+00 0. -1.
         -5    1    3    3    0  503  0.34647701067E+02 -0.21558781504E+01 -0.29615922749E+02  0.45872692096E+02  0.47000000000E+01 0.  1.
         11    1    4    4    0    0 -0.82119890729E+02  0.75606359744E+01 -0.25716814497E+03  0.27006720360E+03  0.00000000000E+00 0. -1.
        -12    1    4    4    0    0 -0.53168270604E+02  0.70200978507E+01 -0.40127487386E+02  0.66980310665E+02  0.00000000000E+00 0.  1.
</event>
<event>
12    1  0.1596842E-001  0.2629009E+03  0.7818608E-02  0.1105476E+00
         21   -1    0    0  501  502  0.00000000000E+00  0.00000000000E+00  0.88883426929E+03  0.88883426929E+03  0.00000000000E+00 0. -1.
         21   -1    0    0  502  503 -0.00000000000E+00 -0.00000000000E+00 -0.16153598192E+03  0.16153598192E+03  0.00000000000E+00 0. -1.
         -6    2    1    2    0  503  0.39276734389E+02  0.19480043435E+03 -0.14988256503E+02  0.26290203084E+03  0.17147291011E+03 0.  0.
        -24    2    3    3    0    0  0.54152795162E+02  0.14894170088E+03  0.50965467715E+02  0.18107108096E+03  0.71225711485E+02 0.  0.
          6    2    1    2  501    0 -0.39276734389E+02 -0.19480043435E+03  0.74228654387E+03  0.78746822038E+03  0.17212499472E+03 0.  0.
         24    2    5    5    0    0  0.36759403143E+02 -0.11005204783E+03  0.46524197250E+03  0.48790258858E+03  0.90200532247E+02 0.  0.
          5    1    5    5  501    0 -0.76036137532E+02 -0.84748386517E+02  0.27704457137E+03  0.29956563179E+03  0.47000000000E+01 0. -1.
        -13    1    6    6    0    0  0.46150371082E+01 -0.79755059670E+02  0.15347910818E+03  0.17302602336E+03  0.00000000000E+00 0.  1.
         14    1    6    6    0    0  0.32144366035E+02 -0.30296988159E+02  0.31176286432E+03  0.31487656523E+03  0.00000000000E+00 0. -1.
         -5    1    3    3    0  503 -0.14876060773E+02  0.45858733464E+02 -0.65953724218E+02  0.81830949873E+02  0.47000000000E+01 0.  1.
         11    1    4    4    0    0  0.61231511429E+02  0.78748928618E+02  0.11987813406E+02  0.10047088842E+03  0.00000000000E+00 0. -1.
        -12    1    4    4    0    0 -0.70787162676E+01  0.70192772265E+02  0.38977654308E+02  0.80600192541E+02  0.00000000000E+00 0.  1.
</event>
<event>
12    1  0.1596842E-001  0.2277503E+03  0.7818608E-02  0.1128382E+00
         21   -1    0    0  501  502  0.00000000000E+00  0.00000000000E+00  0.67366112114E+02  0.67366112114E+02  0.00000000000E+00 0. -1.
         21   -1    0    0  502  503 -0.00000000000E+00 -0.00000000000E+00 -0.86266688964E+03  0.86266688964E+03  0.00000000000E+00 0. -1.
         -6    2    1    2    0  503  0.23554920099E+01 -0.14890720202E+03 -0.24227909296E+03  0.33195007378E+03  0.17120978196E+03 0.  0.
        -24    2    3    3    0    0  0.11186442248E+02 -0.14087862634E+03 -0.10079113261E+03  0.18988186258E+03  0.76969769881E+02 0.  0.
          6    2    1    2  501    0 -0.23554920099E+01  0.14890720202E+03 -0.55302168457E+03  0.59808292798E+03  0.17231164203E+03 0.  0.
         24    2    5    5    0    0  0.52060558191E+02  0.14187916972E+03 -0.42139101582E+03  0.45539717987E+03  0.83523665515E+02 0.  0.
          5    1    5    5  501    0 -0.54416050201E+02  0.70280322964E+01 -0.13163066875E+03  0.14268574811E+03  0.47000000000E+01 0. -1.
        -13    1    6    6    0    0  0.55411061178E+01  0.95775986030E+01 -0.14538418089E+03  0.14580464432E+03  0.00000000000E+00 0.  1.
         14    1    6    6    0    0  0.46519452073E+02  0.13230157112E+03 -0.27600683494E+03  0.30959253556E+03  0.00000000000E+00 0. -1.
         -5    1    3    3    0  503 -0.88309502380E+01 -0.80285756846E+01 -0.14148796034E+03  0.14206821119E+03  0.47000000000E+01 0.  1.
         13    1    4    4    0    0 -0.25868756202E+02 -0.96012818788E+02 -0.81528866479E+02  0.12858697441E+03  0.00000000000E+00 0. -1.
        -14    1    4    4    0    0  0.37055198450E+02 -0.44865807547E+02 -0.19262266134E+02  0.61294888169E+02  0.00000000000E+00 0.  1.
</event>
<event>
12    1  0.1596842E-001  0.1960641E+03  0.7818608E-02  0.1153113E+00
         21   -1    0    0  501  502  0.00000000000E+00  0.00000000000E+00  0.10790378270E+04  0.10790378270E+04  0.00000000000E+00 0. -1.
         21   -1    0    0  502  503 -0.00000000000E+00 -0.00000000000E+00 -0.47931216119E+02  0.47931216119E+02  0.00000000000E+00 0. -1.
         -6    2    1    2    0  503  0.93289930813E+02  0.10189974295E+02  0.80111991401E+03  0.82475221375E+03  0.17209372649E+03 0.  0.
        -24    2    3    3    0    0 -0.19403725433E+01 -0.23425850901E+02  0.50578276301E+03  0.51259046539E+03  0.79876444040E+02 0.  0.
          6    2    1    2  501    0 -0.93289930813E+02 -0.10189974295E+02  0.22998669682E+03  0.30221682932E+03  0.17214611364E+03 0.  0.
         24    2    5    5    0    0 -0.22486648772E+02  0.20604661291E+02  0.33931749109E+02  0.91453818209E+02  0.79260556568E+02 0.  0.
          5    1    5    5  501    0 -0.70803282040E+02 -0.30794635585E+02  0.19605494771E+03  0.21076301111E+03  0.47000000000E+01 0. -1.
        -11    1    6    6    0    0  0.18231246881E+02  0.31137771505E+02 -0.19984611927E+01  0.36137695337E+02  0.00000000000E+00 0.  1.
         12    1    6    6    0    0 -0.40717895654E+02 -0.10533110215E+02  0.35930210302E+02  0.55316122872E+02  0.00000000000E+00 0. -1.
         -5    1    3    3    0  503  0.95230303356E+02  0.33615825196E+02  0.29533715100E+03  0.31216174836E+03  0.47000000000E+01 0.  1.
         11    1    4    4    0    0 -0.24423109544E+01  0.21115837971E+02  0.34777126872E+03  0.34842029051E+03  0.00000000000E+00 0. -1.
        -12    1    4    4    0    0  0.50193841113E+00 -0.44541688873E+02  0.15801149430E+03  0.16417017488E+03  0.00000000000E+00 0.  1.
</event>
<event>
12    1  0.1596842E-001  0.2488632E+03  0.7818608E-02  0.1114235E+00
         21   -1    0    0  501  502  0.00000000000E+00  0.00000000000E+00  0.18898375796E+03  0.18898375796E+03  0.00000000000E+00 0.  1.
         21   -1    0    0  502  503 -0.00000000000E+00 -0.00000000000E+00 -0.41793487956E+03  0.41793487956E+03  0.00000000000E+00 0. -1.
         -6    2    1    2    0  503  0.16701829366E+03 -0.65145673706E+02 -0.25657737338E+03  0.35652670182E+03  0.17070521774E+03 0.  0.
        -24    2    3    3    0    0  0.20758787038E+02 -0.84083522693E+00 -0.53564689945E+02  0.98140953058E+02  0.79566553369E+02 0.  0.
          6    2    1    2  501    0 -0.16701829366E+03  0.65145673706E+02  0.27626251783E+02  0.25039193569E+03  0.17260892924E+03 0.  0.
         24    2    5    5    0    0 -0.69665169344E+02 -0.47958575172E+01  0.66875533435E+02  0.12416973197E+03  0.77907312208E+02 0.  0.
          5    1    5    5  501    0 -0.97353124313E+02  0.69941531223E+02 -0.39249281652E+02  0.12622220373E+03  0.47000000000E+01 0. -1.
        -13    1    6    6    0    0  0.15795032625E+02  0.84734991263E+01  0.14564889094E+02  0.23095870570E+02  0.00000000000E+00 0.  1.
         14    1    6    6    0    0 -0.85460201969E+02 -0.13269356644E+02  0.52310644341E+02  0.10107386140E+03  0.00000000000E+00 0. -1.
         -5    1    3    3    0  503  0.14625950662E+03 -0.64304838479E+02 -0.20301268344E+03  0.25838574876E+03  0.47000000000E+01 0.  1.
         11    1    4    4    0    0  0.34381183738E+02  0.22789364087E+02 -0.57308790919E+02  0.70609619935E+02  0.00000000000E+00 0. -1.
        -12    1    4    4    0    0 -0.13622396700E+02 -0.23630199314E+02  0.37441009744E+01  0.27531333123E+02  0.00000000000E+00 0.  1.
</event>
<event>
12    1  0.1596842E-001  0.1907809E+03  0.7818608E-02  0.1157853E+00
         21   -1    0    0  501  502  0.00000000000E+00  0.00000000000E+00  0.56182633927E+02  0.56182633927E+02  0.00000000000E+00 0.  1.
         21   -1    0    0  502  503 -0.00000000000E+00 -0.00000000000E+00 -0.64932538018E+03  0.64932538018E+03  0.00000000000E+00 0.  1.
         -6    2    1    2    0  503 -0.37333411366E+02  0.72680265397E+02 -0.27264709074E+03  0.33252700386E+03  0.17193477724E+03 0.  0.
        -24    2    3    3    0    0  0.47144374505E+02  0.42704117893E+02 -0.15850209941E+03  0.18731600300E+03  0.76929420447E+02 0.  0.
          6    2    1    2  501    0  0.37333411366E+02 -0.72680265397E+02 -0.32049565551E+03  0.37298101025E+03  0.17239827209E+03 0.  0.
         24    2    5    5    0    0  0.63105784677E+02 -0.20089632346E+02 -0.10121293687E+03  0.14596341047E+03  0.81702663483E+02 0.  0.
          5    1    5    5  501    0 -0.25772373311E+02 -0.52590633051E+02 -0.21928271865E+03  0.22701759977E+03  0.47000000000E+01 0. -1.
        -13    1    6    6    0    0  0.18630127450E+02 -0.47361429157E+02 -0.64539872869E+02  0.82192346423E+02  0.00000000000E+00 0.  1.
         14    1    6    6    0    0  0.44475657227E+02  0.27271796811E+02 -0.36673063998E+02  0.63771064050E+02  0.00000000000E+00 0. -1.
         -5    1    3    3    0  503 -0.84477785870E+02  0.29976147504E+02 -0.11414499134E+03  0.14521100087E+03  0.47000000000E+01 0.  1.
         11    1    4    4    0    0 -0.80419229172E+01  0.15726840455E+02 -0.36505209971E+00  0.17667464389E+02  0.00000000000E+00 0. -1.
        -12    1    4    4    0    0  0.55186297422E+02  0.26977277438E+02 -0.15813704731E+03  0.16964853861E+03  0.00000000000E+00 0.  1.
</event>
<event>
12    1  0.1596842E-001  0.2032949E+03  0.7818608E-02  0.1147545E+00
         21   -1    0    0  501  502  0.00000000000E+00  0.00000000000E+00  0.44494367411E+02  0.44494367411E+02  0.00000000000E+00 0.  1.
         21   -1    0    0  502  503 -0.00000000000E+00 -0.00000000000E+00 -0.10153858600E+04  0.10153858600E+04  0.00000000000E+00 0.  1.
         -6    2    1    2    0  503 -0.39995539528E+02 -0.10062208925E+03 -0.64777859535E+03  0.67813322263E+03  0.16888786519E+03 0.  0.
        -24    2    3    3    0    0  0.20178007673E+02 -0.16264547333E+02 -0.17685394458E+03  0.19592044038E+03  0.80223523677E+02 0.  0.
          6    2    1    2  501    0  0.39995539528E+02  0.10062208925E+03 -0.32311289720E+03  0.38174700474E+03  0.17205924348E+03 0.  0.
         24    2    5    5    0    0  0.13331134683E+01  0.91599368787E+02 -0.10325541435E+03  0.15828426638E+03  0.77459711053E+02 0.  0.
          5    1    5    5  501    0  0.38662426060E+02  0.90227204635E+01 -0.21985748285E+03  0.22346273837E+03  0.47000000000E+01 0. -1.
        -13    1    6    6    0    0 -0.28729606579E+02  0.74938643470E+02 -0.92069327710E+02  0.12213906699E+03  0.00000000000E+00 0.  1.
         14    1    6    6    0    0  0.30062720047E+02  0.16660725317E+02 -0.11186086638E+02  0.36145199391E+02  0.00000000000E+00 0. -1.
         -5    1    3    3    0  503 -0.60173547201E+02 -0.84357541917E+02 -0.47092465077E+03  0.48221278225E+03  0.47000000000E+01 0.  1.
         13    1    4    4    0    0  0.69202293232E+01  0.24025611497E+02 -0.13137116059E+03  0.13372920929E+03  0.00000000000E+00 0. -1.
        -14    1    4    4    0    0  0.13257778350E+02 -0.40290158831E+02 -0.45482783996E+02  0.62191231097E+02  0.00000000000E+00 0.  1.
</event>
<event>
12    1  0.1596842E-001  0.1950159E+03  0.7818608E-02  0.1154064E+00
         21   -1    0    0  501  502  0.00000000000E+00  0.00000000000E+00  0.53606139411E+03  0.53606139411E+03  0.00000000000E+00 0. -1.
         21   -1    0    0  502  503 -0.00000000000E+00 -0.00000000000E+00 -0.84266321070E+02  0.84266321070E+02  0.00000000000E+00 0.  1.
         -6    2    1    2    0  503 -0.92426117434E+02  0.19106702371E+02  0.34949417640E+03  0.40010815124E+03  0.17038984739E+03 0.  0.
        -24    2    3    3    0    0 -0.34914254700E+02  0.44269858799E+02  0.11248612795E+03  0.15488232914E+03  0.90313793622E+02 0.  0.
          6    2    1    2  501    0  0.92426117434E+02 -0.19106702371E+02  0.10230089664E+03  0.22021956394E+03  0.17065617372E+03 0.  0.
         24    2    5    5    0    0  0.10736122374E+03 -0.65328179284E+02  0.75651142312E+02  0.16461577150E+03  0.74706448995E+02 0.  0.
          5    1    5    5  501    0 -0.14935106303E+02  0.46221476914E+02  0.26649754332E+02  0.55603792446E+02  0.47000000000E+01 0. -1.
        -13    1    6    6    0    0  0.75885141595E+02 -0.74446957751E+02  0.77863049918E+02  0.13177085708E+03  0.00000000000E+00 0.  1.
         14    1    6    6    0    0  0.31476082142E+02  0.91187784667E+01 -0.22119076061E+01  0.32844914416E+02  0.00000000000E+00 0. -1.
         -5    1    3    3    0  503 -0.57511862734E+02 -0.25163156429E+02  0.23700804845E+03  0.24522582210E+03  0.47000000000E+01 0.  1.
         11    1    4    4    0    0 -0.42751161341E+02  0.46530301014E+02  0.12493159424E+03  0.14000226408E+03  0.00000000000E+00 0. -1.
        -12    1    4    4    0    0  0.78369066407E+01 -0.22604422146E+01 -0.12445466294E+02  0.14880065053E+02  0.00000000000E+00 0.  1.
</event>
<event>
12    1  0.1596842E-001  0.2502807E+03  0.7818608E-02  0.1113265E+00
         21   -1    0    0  503  502  0.00000000000E+00  0.00000000000E+00  0.55697205421E+03  0.55697205421E+03  0.00000000000E+00 0.  1.
         21   -1    0    0  501  503 -0.00000000000E+00 -0.00000000000E+00 -0.13539268921E+03  0.13539268921E+03  0.00000000000E+00 0.  1.
          6    2    1    2  501    0 -0.14704464463E+03  0.10653892834E+03  0.66818456935E+02  0.25820378552E+03  0.17097314966E+03 0.  0.
         24    2    3    3    0    0 -0.14107614002E+03  0.68989439679E+02 -0.57743160114E+01  0.17612219301E+03  0.79521469265E+02 0.  0.
         -6    2    1    2    0  502  0.14704464463E+03 -0.10653892834E+03  0.35476090807E+03  0.43416095790E+03  0.17224332993E+03 0.  0.
        -24    2    5    5    0    0  0.26522031604E+02 -0.53036305395E+02  0.23912933862E+03  0.25871586459E+03  0.78960687392E+02 0.  0.
          5    1    3    3  501    0 -0.59685046093E+01  0.37549488657E+02  0.72592772947E+02  0.82081592515E+02  0.47000000000E+01 0. -1.
        -13    1    4    4    0    0 -0.72810490440E+02  0.55317656767E+02  0.32043560713E+02  0.96892726515E+02  0.00000000000E+00 0.  1.
         14    1    4    4    0    0 -0.68265649582E+02  0.13671782911E+02 -0.37817876725E+02  0.79229466493E+02  0.00000000000E+00 0. -1.
         -5    1    5    5    0  502  0.12052261303E+03 -0.53502622941E+02  0.11563156945E+03  0.17544509331E+03  0.47000000000E+01 0.  1.
         11    1    6    6    0    0 -0.96411918444E+01 -0.48819667075E+02  0.71081049424E+02  0.86768819634E+02  0.00000000000E+00 0. -1.
        -12    1    6    6    0    0  0.36163223448E+02 -0.42166383203E+01  0.16804828919E+03  0.17194704496E+03  0.00000000000E+00 0.  1.
</event>
<event>
12    1  0.1596842E-001  0.1834722E+03  0.7818608E-02  0.1164668E+00
         21   -1    0    0  503  502  0.00000000000E+00  0.00000000000E+00  0.47782583010E+02  0.47782583010E+02  0.00000000000E+00 0. -1.
         21   -1    0    0  501  503 -0.00000000000E+00 -0.00000000000E+00 -0.73276165946E+03  0.73276165946E+03  0.00000000000E+00 0. -1.
          6    2    1    2  501    0 -0.60746120207E+02  0.12907357150E+02 -0.42379308996E+03  0.46180366514E+03  0.17264226322E+03 0.  0.
         24    2    3    3    0    0 -0.10469209802E+03 -0.12629366193E+02 -0.31226301406E+03  0.33914796395E+03  0.79957583886E+02 0.  0.
         -6    2    1    2    0  502  0.60746120207E+02 -0.12907357150E+02 -0.26118598649E+03  0.31874057733E+03  0.17181602111E+03 0.  0.
        -24    2    5    5    0    0  0.38804499038E+02 -0.75843127504E+02 -0.15824973262E+03  0.19602012961E+03  0.78249244084E+02 0.  0.
          5    1    3    3  501    0  0.43945977813E+02  0.25536723343E+02 -0.11153007590E+03  0.12265570120E+03  0.47000000000E+01 0. -1.
        -13    1    4    4    0    0 -0.46006875433E+02 -0.42514826325E+02 -0.11192096092E+03  0.12825928636E+03  0.00000000000E+00 0.  1.
         14    1    4    4    0    0 -0.58685222588E+02  0.29885460132E+02 -0.20034205314E+03  0.21088867758E+03  0.00000000000E+00 0. -1.
         -5    1    5    5    0  502  0.21941621169E+02  0.62935770354E+02 -0.10293625386E+03  0.12272044772E+03  0.47000000000E+01 0.  1.
         13    1    6    6    0    0 -0.15778644912E+02 -0.13520700977E+02 -0.43365244251E+01  0.21226879994E+02  0.00000000000E+00 0. -1.
        -14    1    6    6    0    0  0.54583143950E+02 -0.62322426526E+02 -0.15391320820E+03  0.17479324961E+03  0.00000000000E+00 0.  1.
</event>
<event>
12    1  0.1596842E-001  0.1929909E+03  0.7818608E-02  0.1156023E+00
         21   -1    0    0  503  502  0.00000000000E+00  0.00000000000E+00  0.10755597661E+03  0.10755597661E+03  0.00000000000E+00 0.  1.
         21   -1    0    0  501  503 -0.00000000000E+00 -0.00000000000E+00 -0.44091617691E+03  0.44091617691E+03  0.00000000000E+00 0.  1.
          6    2    1    2  501    0 -0.85366595081E+02  0.12823932974E+02 -0.29462079426E+03  0.35163149850E+03  0.17143917148E+03 0.  0.
         24    2    3    3    0    0 -0.83805826314E+02 -0.29239220745E+02 -0.10971745740E+03  0.16193943520E+03  0.79423621548E+02 0.  0.
         -6    2    1    2    0  502  0.85366595081E+02 -0.12823932974E+02 -0.38739406042E+02  0.19684065501E+03  0.17260820685E+03 0.  0.
        -24    2    5    5    0    0 -0.76270532118E+01 -0.37033557444E+02 -0.54710043058E+02  0.99315910527E+02  0.73761812306E+02 0.  0.
          5    1    3    3  501    0 -0.15607687672E+01  0.42063153719E+02 -0.18490333686E+03  0.18969206331E+03  0.47000000000E+01 0. -1.
        -13    1    4    4    0    0 -0.57674530271E+02 -0.42530541021E+01 -0.13829287748E+02  0.59461660848E+02  0.00000000000E+00 0.  1.
         14    1    4    4    0    0 -0.26131296042E+02 -0.24986166643E+02 -0.95888169650E+02  0.10247777435E+03  0.00000000000E+00 0. -1.
         -5    1    5    5    0  502  0.92993648293E+02  0.24209624471E+02  0.15970637016E+02  0.97524744483E+02  0.47000000000E+01 0.  1.
         11    1    6    6    0    0 -0.85558420161E+01  0.21822795664E+02 -0.21069006066E+02  0.31517294614E+02  0.00000000000E+00 0. -1.
        -12    1    6    6    0    0  0.92878880426E+00 -0.58856353108E+02 -0.33641036992E+02  0.67798615913E+02  0.00000000000E+00 0.  1.
</event>
<event>
12    1  0.1596842E-001  0.2428796E+03  0.7818608E-02  0.1118000E+00
         21   -1    0    0  503  502  0.00000000000E+00  0.00000000000E+00  0.21234611838E+03  0.21234611838E+03  0.00000000000E+00 0.  1.
         21   -1    0    0  501  503 -0.00000000000E+00 -0.00000000000E+00 -0.40773136852E+03  0.40773136852E+03  0.00000000000E+00 0.  1.
          6    2    1    2  501    0  0.16929621006E+03  0.17550604822E+02 -0.27313624904E+03  0.36505648550E+03  0.17231830024E+03 0.  0.
         24    2    3    3    0    0  0.92434785598E+02 -0.69341583670E+01 -0.25336084592E+03  0.28186791197E+03  0.81642693547E+02 0.  0.
         -6    2    1    2    0  502 -0.16929621006E+03 -0.17550604822E+02  0.77750998906E+02  0.25502100139E+03  0.17326645045E+03 0.  0.
        -24    2    5    5    0    0 -0.10298526823E+03 -0.11783985886E+02  0.11882159572E+03  0.17666745123E+03  0.79674267610E+02 0.  0.
          5    1    3    3  501    0  0.76861424457E+02  0.24484763189E+02 -0.19775403122E+02  0.83188573534E+02  0.47000000000E+01 0. -1.
        -11    1    4    4    0    0  0.20831650280E+02 -0.38951660202E+02 -0.75353765558E+02  0.87346319153E+02  0.00000000000E+00 0.  1.
         12    1    4    4    0    0  0.71603135319E+02  0.32017501835E+02 -0.17800708036E+03  0.19452159281E+03  0.00000000000E+00 0. -1.
         -5    1    5    5    0  502 -0.66310941829E+02 -0.57666189359E+01 -0.41070596817E+02  0.78353550163E+02  0.47000000000E+01 0.  1.
         13    1    6    6    0    0  0.82475501395E+01 -0.13112063573E+02  0.32013223156E+02  0.35563952976E+02  0.00000000000E+00 0. -1.
        -14    1    6    6    0    0 -0.11123281837E+03  0.13280776867E+01  0.86808372567E+02  0.14110349825E+03  0.00000000000E+00 0.  1.
</event>
<event>
12    1  0.1596842E-001  0.2086401E+03  0.7818608E-02  0.1142833E+00
         21   -1    0    0  503  502  0.00000000000E+00  0.00000000000E+00  0.58848921540E+03  0.58848921540E+03  0.00000000000E+00 0.  1.
         21   -1    0    0  501  503 -0.00000000000E+00 -0.00000000000E+00 -0.21313585679E+03  0.21313585679E+03  0.00000000000E+00 0. -1.
          6    2    1    2  501    0 -0.81157998422E+02  0.86286126105E+02 -0.13643699245E+03  0.24929052274E+03  0.17175213406E+03 0.  0.
         24    2    3    3    0    0 -0.11902533941E+03  0.59662447250E+02 -0.12906574523E+03  0.20218233794E+03  0.80579725434E+02 0.  0.
         -6    2    1    2    0  502  0.81157998422E+02 -0.86286126105E+02  0.51179035106E+03  0.55233454946E+03  0.17062290240E+03 0.  0.
        -24    2    5    5    0    0 -0.11896492662E+01 -0.51039918184E+02  0.15989437081E+03  0.18918678178E+03  0.87286540032E+02 0.  0.
          5    1    3    3  501    0  0.37867340990E+02  0.26623678855E+02 -0.73712472197E+01  0.47108184799E+02  0.47000000000E+01 0. -1.
        -13    1    4    4    0    0  0.52004384419E+01  0.13315677623E+02  0.34699343770E+01  0.14710277874E+02  0.00000000000E+00 0.  1.
         14    1    4    4    0    0 -0.12422577785E+03  0.46346769627E+02 -0.13253567961E+03  0.18747206007E+03  0.00000000000E+00 0. -1.
         -5    1    5    5    0  502  0.82347647689E+02 -0.35246207921E+02  0.35189598025E+03  0.36314776767E+03  0.47000000000E+01 0.  1.
         11    1    6    6    0    0  0.29593801648E+02 -0.57427390832E+02  0.76890451898E+02  0.10042828240E+03  0.00000000000E+00 0. -1.
        -12    1    6    6    0    0 -0.30783450914E+02  0.63874726473E+01  0.83003918912E+02  0.88758499378E+02  0.00000000000E+00 0.  1.
</event>
<event>
12    1  0.1596842E-001  0.2003145E+03  0.7818608E-02  0.1150477E+00
         21   -1    0    0  503  502  0.00000000000E+00  0.00000000000E+00  0.25049799881E+03  0.25049799881E+03  0.00000000000E+00 0.  1.
         21   -1    0    0  501  503 -0.00000000000E+00 -0.00000000000E+00 -0.36523638948E+03  0.36523638948E+03  0.00000000000E+00 0.  1.
          6    2    1    2  501    0  0.50812316862E+02 -0.89904265957E+02 -0.28984364844E+03  0.34967474961E+03  0.16612772614E+03 0.  0.
         24    2    3    3    0    0  0.73160487011E+02 -0.73992295396E+02 -0.29183027032E+03  0.32177012306E+03  0.86854987097E+02 0.  0.
         -6    2    1    2    0  502 -0.50812316862E+02  0.89904265957E+02  0.17510525776E+03  0.26605963868E+03  0.17164268541E+03 0.  0.
        -24    2    5    5    0    0 -0.73714839766E+02  0.11792070919E+02  0.13975165664E+03  0.17718890288E+03  0.79324972309E+02 0.  0.
          5    1    3    3  501    0 -0.22348170149E+02 -0.15911970561E+02  0.19866218837E+01  0.27904626546E+02  0.47000000000E+01 0. -1.
        -13    1    4    4    0    0  0.91196344448E+01 -0.20551240752E+02 -0.18437775613E+03  0.18574358182E+03  0.00000000000E+00 0.  1.
         14    1    4    4    0    0  0.64040852566E+02 -0.53441054644E+02 -0.10745251419E+03  0.13602654125E+03  0.00000000000E+00 0. -1.
         -5    1    5    5    0  502  0.22902522904E+02  0.78112195038E+02  0.35353601118E+02  0.88870735797E+02  0.47000000000E+01 0.  1.
         13    1    6    6    0    0 -0.13518487453E+02  0.39957881666E+02  0.48091620805E+02  0.63970194638E+02  0.00000000000E+00 0. -1.
        -14    1    6    6    0    0 -0.60196352312E+02 -0.28165810748E+02  0.91660035836E+02  0.11321870824E+03  0.00000000000E+00 0.  1.
</event>
<event>
12    1  0.1596842E-001  0.1962118E+03  0.7818608E-02  0.1153301E+00
         21   -1    0    0  501  502  0.00000000000E+00  0.00000000000E+00  0.33432402802E+02  0.33432402802E+02  0.00000000000E+00 0. -1.
         21   -1    0    0  502  503 -0.00000000000E+00 -0.00000000000E+00 -0.22890026298E+04  0.22890026298E+04  0.00000000000E+00 0.  1.
         -6    2    1    2    0  503  0.57762740348E+02 -0.71962043889E+02 -0.19473500033E+04  0.19570602068E+04  0.17145713138E+03 0.  0.
        -24    2    3    3    0    0  0.18702749946E+02 -0.94942758821E+02 -0.91966330318E+03  0.92836402248E+03  0.81946608899E+02 0.  0.
          6    2    1    2  501    0 -0.57762740348E+02  0.71962043889E+02 -0.30822022375E+03  0.36537482581E+03  0.17315884926E+03 0.  0.
         24    2    5    5    0    0 -0.10027837875E+03  0.24081538790E+02 -0.22692575753E+03  0.26178427357E+03  0.80000204386E+02 0.  0.
          5    1    5    5  501    0  0.42515638401E+02  0.47880505099E+02 -0.81294466220E+02  0.10359055225E+03  0.47000000000E+01 0. -1.
        -13    1    6    6    0    0 -0.93070146028E+02  0.47790946892E+02 -0.19579252134E+03  0.22199265325E+03  0.00000000000E+00 0.  1.
         14    1    6    6    0    0 -0.72082327215E+01 -0.23709408101E+02 -0.31133236190E+02  0.39791620313E+02  0.00000000000E+00 0. -1.
         -5    1    3    3    0  503  0.39059990402E+02  0.22980714932E+02 -0.10276867001E+04  0.10286961843E+04  0.47000000000E+01 0.  1.
         11    1    4    4    0    0  0.30762109578E+02 -0.21780703573E+02 -0.13372096710E+03  0.13893165037E+03  0.00000000000E+00 0. -1.
        -12    1    4    4    0    0 -0.12059359632E+02 -0.73162055248E+02 -0.78594233609E+03  0.78943237211E+03  0.00000000000E+00 0.  1.
</event>
<event>
12    1  0.1596842E-001  0.2369965E+03  0.7818608E-02  0.1121873E+00
         21   -1    0    0  503  502  0.00000000000E+00  0.00000000000E+00  0.17259097799E+03  0.17259097799E+03  0.00000000000E+00 0.  1.
         21   -1    0    0  501  503 -0.00000000000E+00 -0.00000000000E+00 -0.34250621686E+03  0.34250621686E+03  0.00000000000E+00 0.  1.
          6    2    1    2  501    0 -0.10266023520E+03  0.12615179016E+03 -0.14324527331E+03  0.27660479519E+03  0.17186508180E+03 0.  0.
         24    2    3    3    0    0 -0.64219131334E+01  0.46684111678E+02 -0.10188588463E+02  0.94113431173E+02  0.80826254032E+02 0.  0.
         -6    2    1    2    0  502  0.10266023520E+03 -0.12615179016E+03 -0.26669965562E+02  0.23849239966E+03  0.17237731747E+03 0.  0.
        -24    2    5    5    0    0  0.79410763211E+02 -0.15241239131E+03 -0.44463387990E+02  0.19888365059E+03  0.89677796930E+02 0.  0.
          5    1    3    3  501    0 -0.96238322071E+02  0.79467678481E+02 -0.13305668485E+03  0.18249136402E+03  0.47000000000E+01 0. -1.
        -11    1    4    4    0    0 -0.20220911367E+02  0.22761751399E+02 -0.42071589395E+02  0.51932660412E+02  0.00000000000E+00 0.  1.
         12    1    4    4    0    0  0.13798998234E+02  0.23922360280E+02  0.31883000932E+02  0.42180770761E+02  0.00000000000E+00 0. -1.
         -5    1    5    5    0  502  0.23249471993E+02  0.26260601152E+02  0.17793422428E+02  0.39608749065E+02  0.47000000000E+01 0.  1.
         13    1    6    6    0    0  0.27662937662E+02 -0.19219507202E+02 -0.44725692927E+02  0.55991206319E+02  0.00000000000E+00 0. -1.
        -14    1    6    6    0    0  0.51747825549E+02 -0.13319288411E+03  0.26230493764E+00  0.14289244427E+03  0.00000000000E+00 0.  1.
</event>
<event>
12    1  0.1596842E-001  0.2475942E+03  0.7818608E-02  0.1114903E+00
         21   -1    0    0  501  502  0.00000000000E+00  0.00000000000E+00  0.79194485172E+03  0.79194485172E+03  0.00000000000E+00 0. -1.
         21   -1    0    0  502  503 -0.00000000000E+00 -0.00000000000E+00 -0.23290766516E+03  0.23290766516E+03  0.00000000000E+00 0. -1.
         -6    2    1    2    0  503  0.14630118055E+03  0.10145137582E+03 -0.13928224831E+03  0.28408176413E+03  0.17206535657E+03 0.  0.
        -24    2    3    3    0    0  0.10151379997E+03  0.13399059818E+03 -0.13092430519E+03  0.22789764125E+03  0.80855607155E+02 0.  0.
          6    2    1    2  501    0 -0.14630118055E+03 -0.10145137582E+03  0.69831943488E+03  0.74077075275E+03  0.17144928670E+03 0.  0.
         24    2    5    5    0    0 -0.12595472849E+03 -0.58325951499E+02  0.30595190350E+03  0.34548838530E+03  0.80555241143E+02 0.  0.
          5    1    5    5  501    0 -0.20346452061E+02 -0.43125424317E+02  0.39236753138E+03  0.39528236744E+03  0.47000000000E+01 0. -1.
        -13    1    6    6    0    0 -0.35128200472E+02  0.18778983204E+02  0.57525882235E+02  0.69970478100E+02  0.00000000000E+00 0.  1.
         14    1    6    6    0    0 -0.90826528017E+02 -0.77104934702E+02  0.24842602127E+03  0.27551790720E+03  0.00000000000E+00 0. -1.
         -5    1    3    3    0  503  0.44787380578E+02 -0.32539222369E+02 -0.83579431168E+01  0.56184122887E+02  0.47000000000E+01 0.  1.
         13    1    4    4    0    0 -0.13311912359E+02  0.64543704347E+01 -0.12788749260E+02  0.19555511141E+02  0.00000000000E+00 0. -1.
        -14    1    4    4    0    0  0.11482571233E+03  0.12753622775E+03 -0.11813555593E+03  0.20834213011E+03  0.00000000000E+00 0.  1.
</event>
<event>
12    1  0.1596842E-001  0.1989963E+03  0.7818608E-02  0.1151104E+00
         21   -1    0    0  501  502  0.00000000000E+00  0.00000000000E+00  0.85594078868E+02  0.85594078868E+02  0.00000000000E+00 0. -1.
         21   -1    0    0  502  503 -0.00000000000E+00 -0.00000000000E+00 -0.52221842755E+03  0.52221842755E+03  0.00000000000E+00 0. -1.
         -6    2    1    2    0  503  0.50142196653E+02  0.80352323700E+02 -0.32449974109E+03  0.37940183032E+03  0.17226413171E+03 0.  0.
        -24    2    3    3    0    0  0.35274642214E+02  0.86222397974E+02 -0.33660267353E+03  0.35880879944E+03  0.82242278881E+02 0.  0.
          6    2    1    2  501    0 -0.50142196653E+02 -0.80352323700E+02 -0.11212460760E+03  0.22841067611E+03  0.17501078116E+03 0.  0.
         24    2    5    5    0    0 -0.49127483020E+02 -0.34477856071E+02  0.74719236093E+01  0.10022753876E+03  0.79921822648E+02 0.  0.
          5    1    5    5  501    0 -0.10147136330E+01 -0.45874467628E+02 -0.11959653121E+03  0.12818313735E+03  0.47000000000E+01 0. -1.
        -13    1    6    6    0    0  0.22340958465E+02 -0.78720584205E+01  0.15601846161E+01  0.23738616323E+02  0.00000000000E+00 0.  1.
         14    1    6    6    0    0 -0.71468441485E+02 -0.26605797651E+02  0.59117389932E+01  0.76488922432E+02  0.00000000000E+00 0. -1.
         -5    1    3    3    0  503  0.14867554440E+02 -0.58700742743E+01  0.12102932439E+02  0.20593030875E+02  0.47000000000E+01 0.  1.
         11    1    4    4    0    0  0.61110488278E+02  0.60255734216E+02 -0.20588360963E+03  0.22305449110E+03  0.00000000000E+00 0. -1.
        -12    1    4    4    0    0 -0.25835846064E+02  0.25966663758E+02 -0.13071906389E+03  0.13575430834E+03  0.00000000000E+00 0.  1.
</event>
<event>
12    1  0.1596842E-001  0.1772259E+03  0.7818608E-02  0.1170911E+00
         21   -1    0    0  501  502  0.00000000000E+00  0.00000000000E+00  0.13721770771E+04  0.13721770771E+04  0.00000000000E+00 0.  1.
         21   -1    0    0  502  503 -0.00000000000E+00 -0.00000000000E+00 -0.36596254052E+02  0.36596254052E+02  0.00000000000E+00 0.  1.
         -6    2    1    2    0  503  0.14303350660E+02  0.30824123978E+02  0.23162212704E+03  0.29067949856E+03  0.17231090706E+03 0.  0.
        -24    2    3    3    0    0  0.72491062543E+02 -0.27644422193E+01  0.14332501128E+03  0.17962783381E+03  0.80383477979E+02 0.  0.
          6    2    1    2  501    0 -0.14303350660E+02 -0.30824123978E+02  0.11039586960E+04  0.11180938326E+04  0.17393764260E+03 0.  0.
         24    2    5    5    0    0 -0.20863078558E+02  0.47481186355E+02  0.58845986781E+03  0.59661911265E+03  0.83544110821E+02 0.  0.
          5    1    5    5  501    0  0.65597278983E+01 -0.78305310332E+02  0.51549882818E+03  0.52147471992E+03  0.47000000000E+01 0. -1.
        -11    1    6    6    0    0  0.12877800897E+02  0.37877471869E+02  0.49785515942E+03  0.49946000880E+03  0.00000000000E+00 0.  1.
         12    1    6    6    0    0 -0.33740879455E+02  0.96037144863E+01  0.90604708389E+02  0.97159103849E+02  0.00000000000E+00 0. -1.
         -5    1    3    3    0  503 -0.58187711883E+02  0.33588566197E+02  0.88297115753E+02  0.11105166475E+03  0.47000000000E+01 0.  1.
         11    1    4    4    0    0  0.11223256024E+02  0.78375509594E+01  0.10647240339E+03  0.10734878371E+03  0.00000000000E+00 0. -1.
        -12    1    4    4    0    0  0.61267806519E+02 -0.10601993179E+02  0.36852607891E+02  0.72279050100E+02  0.00000000000E+00 0.  1.
</event>
<event>
12    1  0.1596842E-001  0.1781075E+03  0.7818608E-02  0.1170178E+00
         21   -1    0    0  501  502  0.00000000000E+00  0.00000000000E+00  0.21880043240E+03  0.21880043240E+03  0.00000000000E+00 0. -1.
         21   -1    0    0  502  503 -0.00000000000E+00 -0.00000000000E+00 -0.25681778590E+03  0.25681778590E+03  0.00000000000E+00 0. -1.
         -6    2    1    2    0  503 -0.34053892930E+02  0.24635668938E+02 -0.17721997383E+03  0.25125524399E+03  0.17307713512E+03 0.  0.
        -24    2    3    3    0    0  0.85933964271E+01  0.64893996455E+02 -0.16167274939E+03  0.19040024902E+03  0.76348540889E+02 0.  0.
          6    2    1    2  501    0  0.34053892930E+02 -0.24635668938E+02  0.13920262032E+03  0.22436297431E+03  0.17086483233E+03 0.  0.
         24    2    5    5    0    0  0.27696965892E+02  0.40754330656E+02  0.38028262005E+02  0.10363765240E+03  0.82864810974E+02 0.  0.
          5    1    5    5  501    0  0.63569270382E+01 -0.65389999593E+02  0.10117435832E+03  0.12072532191E+03  0.47000000000E+01 0. -1.
        -13    1    6    6    0    0  0.29871081670E+02 -0.17954989739E+02  0.24124413559E+01  0.34935412548E+02  0.00000000000E+00 0.  1.
         14    1    6    6    0    0 -0.21741157776E+01  0.58709320395E+02  0.35615820649E+02  0.68702239855E+02  0.00000000000E+00 0. -1.
         -5    1    3    3    0  503 -0.42647289357E+02 -0.40258327518E+02 -0.15547224439E+02  0.60854994962E+02  0.47000000000E+01 0.  1.
         11    1    4    4    0    0 -0.24915060534E+02  0.11746669682E+02 -0.94462083526E+02  0.98396289128E+02  0.00000000000E+00 0. -1.
        -12    1    4    4    0    0  0.33508456961E+02  0.53147326773E+02 -0.67210665863E+02  0.92003959897E+02  0.00000000000E+00 0.  1.
</event>
<event>
12    1  0.1596842E-001  0.1915529E+03  0.7818608E-02  0.1157234E+00
         21   -1    0    0  501  502  0.00000000000E+00  0.00000000000E+00  0.28155571823E+02  0.28155571823E+02  0.00000000000E+00 0. -1.
         21   -1    0    0  502  503 -0.00000000000E+00 -0.00000000000E+00 -0.14440161139E+04  0.14440161139E+04  0.00000000000E+00 0. -1.
         -6    2    1    2    0  503 -0.85031132208E+02  0.63028501793E+00 -0.94311579943E+03  0.96237203315E+03  0.17164448246E+03 0.  0.
        -24    2    3    3    0    0 -0.90748460308E+02  0.54985714589E+02 -0.73952415225E+03  0.75151936097E+03  0.81404338326E+02 0.  0.
          6    2    1    2  501    0  0.85031132208E+02 -0.63028501793E+00 -0.47274474267E+03  0.50979965259E+03  0.17081394369E+03 0.  0.
         24    2    5    5    0    0  0.51936108314E+02 -0.70630059906E+01 -0.11646816917E+03  0.15190057836E+03  0.82229592472E+02 0.  0.
          5    1    5    5  501    0  0.33095023894E+02  0.64327209727E+01 -0.35627657350E+03  0.35789907423E+03  0.47000000000E+01 0. -1.
        -13    1    6    6    0    0  0.32268755882E+02  0.24489006572E+02 -0.10569426391E+03  0.11319126059E+03  0.00000000000E+00 0.  1.
         14    1    6    6    0    0  0.19667352431E+02 -0.31552012562E+02 -0.10773905252E+02  0.38709317777E+02  0.00000000000E+00 0. -1.
         -5    1    3    3    0  503  0.57173280998E+01 -0.54355429571E+02 -0.20359164718E+03  0.21085267218E+03  0.47000000000E+01 0.  1.
         13    1    4    4    0    0 -0.66282111309E+02  0.65229619684E+02 -0.38771973498E+03  0.39871645872E+03  0.00000000000E+00 0. -1.
        -14    1    4    4    0    0 -0.24466348999E+02 -0.10243905096E+02 -0.35180441727E+03  0.35280290224E+03  0.00000000000E+00 0.  1.
</event>
<event>
12    1  0.1596842E-001  0.2405719E+03  0.7818608E-02  0.1120184E+00
         21   -1    0    0  501  502  0.00000000000E+00  0.00000000000E+00  0.50809265541E+03  0.50809265541E+03  0.00000000000E+00 0. -1.
         21   -1    0    0  502  503 -0.00000000000E+00 -0.00000000000E+00 -0.19503490598E+03  0.19503490598E+03  0.00000000000E+00 0.  1.
         -6    2    1    2    0  503  0.69225926167E+02 -0.14633159752E+03 -0.74084094770E+02  0.24732757544E+03  0.17168957799E+03 0.  0.
        -24    2    3    3    0    0  0.13922027174E+00 -0.14596080465E+03 -0.43947758722E+02  0.17180672290E+03  0.79256347763E+02 0.  0.
          6    2    1    2  501    0 -0.69225926167E+02  0.14633159752E+03  0.38714184420E+03  0.45579998595E+03  0.17795969875E+03 0.  0.
         24    2    5    5    0    0  0.41046367997E+01  0.10018194926E+03  0.12456138927E+03  0.17925388345E+03  0.81013233694E+02 0.  0.
          5    1    5    5  501    0 -0.73330562967E+02  0.46149648261E+02  0.26258045493E+03  0.27654610250E+03  0.47000000000E+01 0. -1.
        -11    1    6    6    0    0 -0.34236677418E+01 -0.13100632819E+02  0.51544672872E+01  0.14488499373E+02  0.00000000000E+00 0.  1.
         12    1    6    6    0    0  0.75283045414E+01  0.11328258208E+03  0.11940692198E+03  0.16476538408E+03  0.00000000000E+00 0. -1.
         -5    1    3    3    0  503  0.69086705895E+02 -0.37079287481E+00 -0.30136336047E+02  0.75520852545E+02  0.47000000000E+01 0.  1.
         11    1    4    4    0    0  0.32869532883E+02 -0.41607084934E+02  0.22770284616E+01  0.53072973982E+02  0.00000000000E+00 0. -1.
        -12    1    4    4    0    0 -0.32730312611E+02 -0.10435371971E+03 -0.46224787184E+02  0.11873374892E+03  0.00000000000E+00 0.  1.
</event>
<event>
12    1  0.1596842E-001  0.1784091E+03  0.7818608E-02  0.1169564E+00
         21   -1    0    0  503  502  0.00000000000E+00  0.00000000000E+00  0.27291548005E+03  0.27291548005E+03  0.00000000000E+00 0. -1.
         21   -1    0    0  501  503 -0.00000000000E+00 -0.00000000000E+00 -0.18685395296E+03  0.18685395296E+03  0.00000000000E+00 0. -1.
          6    2    1    2  501    0  0.34467079380E+02 -0.37717222485E+02 -0.98531667911E+02  0.20305077371E+03  0.17003105214E+03 0.  0.
         24    2    3    3    0    0  0.42323625218E+01  0.47212368070E+01 -0.12142946692E+03  0.14594070341E+03  0.80705455245E+02 0.  0.
         -6    2    1    2    0  502 -0.34467079380E+02  0.37717222485E+02  0.18459319500E+03  0.25671865930E+03  0.17093640326E+03 0.  0.
        -24    2    5    5    0    0 -0.85417236107E+02  0.46812410522E+02  0.12320953414E+03  0.17629052531E+03  0.80064061906E+02 0.  0.
          5    1    3    3  501    0  0.30234716858E+02 -0.42438459292E+02  0.22897799006E+02  0.57110070302E+02  0.47000000000E+01 0. -1.
        -11    1    4    4    0    0  0.10252452420E+02  0.29147688264E+01  0.98486435143E+01  0.14512216819E+02  0.00000000000E+00 0.  1.
         12    1    4    4    0    0 -0.60200898983E+01  0.18064679805E+01 -0.13127811043E+03  0.13142848659E+03  0.00000000000E+00 0. -1.
         -5    1    5    5    0  502  0.50950156728E+02 -0.90951880371E+01  0.61383660855E+02  0.80428133983E+02  0.47000000000E+01 0.  1.
         11    1    6    6    0    0  0.56713774355E+01 -0.10515357418E+02  0.35480892775E+02  0.37438362889E+02  0.00000000000E+00 0. -1.
        -12    1    6    6    0    0 -0.91088613543E+02  0.57327767940E+02  0.87728641367E+02  0.13885216243E+03  0.00000000000E+00 0.  1.
</event>
<event>
12    1  0.1596842E-001  0.2356083E+03  0.7818608E-02  0.1124860E+00
         21   -1    0    0  501  502  0.00000000000E+00  0.00000000000E+00  0.24505682695E+03  0.24505682695E+03  0.00000000000E+00 0.  1.
         21   -1    0    0  502  503 -0.00000000000E+00 -0.00000000000E+00 -0.41885507192E+03  0.41885507192E+03  0.00000000000E+00 0.  1.
         -6    2    1    2    0  503  0.15393652973E+03 -0.47054279975E+02 -0.31953806160E+03  0.39700863044E+03  0.17204859600E+03 0.  0.
        -24    2    3    3    0    0  0.82333782774E+02  0.42272655504E+02 -0.14553300943E+03  0.18866731683E+03  0.76483138135E+02 0.  0.
          6    2    1    2  501    0 -0.15393652973E+03  0.47054279975E+02  0.14573981663E+03  0.26690326843E+03  0.15519890496E+03 0.  0.
         24    2    5    5    0    0 -0.10851779742E+03 -0.54670494483E+01  0.14396207201E+03  0.19728572995E+03  0.79941103796E+02 0.  0.
          5    1    5    5  501    0 -0.45418732306E+02  0.52521329423E+02  0.17777446104E+01  0.69617538484E+02  0.47000000000E+01 0. -1.
        -13    1    6    6    0    0 -0.79618772710E+02  0.28386935327E+02  0.64953680950E+02  0.10660181862E+03  0.00000000000E+00 0.  1.
         14    1    6    6    0    0 -0.28899024709E+02 -0.33853984776E+02  0.79008391065E+02  0.90683911323E+02  0.00000000000E+00 0. -1.
         -5    1    3    3    0  503  0.71602746951E+02 -0.89326935479E+02 -0.17400505217E+03  0.20834131361E+03  0.47000000000E+01 0.  1.
         11    1    4    4    0    0  0.28908510749E+01  0.26270811742E+02 -0.80602848094E+02  0.84825301004E+02  0.00000000000E+00 0. -1.
        -12    1    4    4    0    0  0.79442931699E+02  0.16001843762E+02 -0.64930161332E+02  0.10384201583E+03  0.00000000000E+00 0.  1.
</event>
<event>
12    1  0.1596842E-001  0.2892254E+03  0.7818608E-02  0.1091759E+00
         21   -1    0    0  503  502  0.00000000000E+00  0.00000000000E+00  0.71003031325E+03  0.71003031325E+03  0.00000000000E+00 0. -1.
         21   -1    0    0  501  503 -0.00000000000E+00 -0.00000000000E+00 -0.28586656712E+03  0.28586656712E+03  0.00000000000E+00 0. -1.
          6    2    1    2  501    0  0.62138995971E+02 -0.22376387639E+03 -0.17202899786E+03  0.33651941587E+03  0.17239435593E+03 0.  0.
         24    2    3    3    0    0  0.59053324676E+02 -0.81219741408E+02 -0.14050220560E+03  0.19042225500E+03  0.80223586744E+02 0.  0.
         -6    2    1    2    0  502 -0.62138995971E+02  0.22376387639E+03  0.59619274398E+03  0.65937746450E+03  0.15937793294E+03 0.  0.
        -24    2    5    5    0    0 -0.25712623305E+02  0.15470567139E+03  0.52319035143E+03  0.55238514879E+03  0.82499848529E+02 0.  0.
          5    1    3    3  501    0  0.30856712951E+01 -0.14254413498E+03 -0.31526792261E+02  0.14609716088E+03  0.47000000000E+01 0. -1.
        -11    1    4    4    0    0  0.50319721366E+02 -0.10955546278E+02 -0.31268379404E+02  0.60247903724E+02  0.00000000000E+00 0.  1.
         12    1    4    4    0    0  0.87336033102E+01 -0.70264195130E+02 -0.10923382619E+03  0.13017435127E+03  0.00000000000E+00 0. -1.
         -5    1    5    5    0  502 -0.36426372666E+02  0.69058204998E+02  0.73002392549E+02  0.10699231571E+03  0.47000000000E+01 0.  1.
         13    1    6    6    0    0 -0.49205526254E+02  0.11883777047E+03  0.32326232659E+03  0.34791109683E+03  0.00000000000E+00 0. -1.
        -14    1    6    6    0    0  0.23492902950E+02  0.35867900921E+02  0.19992802485E+03  0.20447405196E+03  0.00000000000E+00 0.  1.
</event>
<event>
12    1  0.1596842E-001  0.4729652E+03  0.7818608E-02  0.1021092E+00
         21   -1    0    0  501  502  0.00000000000E+00  0.00000000000E+00  0.35826437979E+03  0.35826437979E+03  0.00000000000E+00 0.  1.
         21   -1    0    0  502  503 -0.00000000000E+00 -0.00000000000E+00 -0.64688626711E+03  0.64688626711E+03  0.00000000000E+00 0.  1.
         -6    2    1    2    0  503  0.15647087101E+03 -0.41174230008E+03 -0.23826711334E+03  0.52959162837E+03  0.17228238561E+03 0.  0.
        -24    2    3    3    0    0  0.14575231623E+03 -0.32043943706E+03 -0.12208632744E+03  0.38136489250E+03  0.81295383489E+02 0.  0.
          6    2    1    2  501    0 -0.15647087101E+03  0.41174230008E+03 -0.50354773982E+02  0.47555901853E+03  0.17206371406E+03 0.  0.
         24    2    5    5    0    0 -0.13900663149E+03  0.36781619098E+03 -0.92945396513E+02  0.41175812630E+03  0.79336712135E+02 0.  0.
          5    1    5    5  501    0 -0.17464239519E+02  0.43926109092E+02  0.42590622532E+02  0.63800892232E+02  0.47000000000E+01 0. -1.
        -13    1    6    6    0    0 -0.10777089754E+03  0.22973504820E+03 -0.25780430462E+02  0.25506350057E+03  0.00000000000E+00 0.  1.
         14    1    6    6    0    0 -0.31235733950E+02  0.13808114278E+03 -0.67164966052E+02  0.15669462573E+03  0.00000000000E+00 0. -1.
         -5    1    3    3    0  503  0.10718554776E+02 -0.91302863014E+02 -0.11618078591E+03  0.14822673586E+03  0.47000000000E+01 0.  1.
         13    1    4    4    0    0  0.46312442736E+02 -0.11191768867E+03 -0.23134982914E+01  0.12114356633E+03  0.00000000000E+00 0. -1.
        -14    1    4    4    0    0  0.99439873496E+02 -0.20852174839E+03 -0.11977282914E+03  0.26022132617E+03  0.00000000000E+00 0.  1.
</event>
<event>
12    1  0.1596842E-001  0.1807003E+03  0.7818608E-02  0.1167218E+00
         21   -1    0    0  503  502  0.00000000000E+00  0.00000000000E+00  0.15131239174E+03  0.15131239174E+03  0.00000000000E+00 0. -1.
         21   -1    0    0  501  503 -0.00000000000E+00 -0.00000000000E+00 -0.51896946470E+03  0.51896946470E+03  0.00000000000E+00 0. -1.
          6    2    1    2  501    0  0.51707712905E+02  0.14998466907E+02 -0.44025315901E+03  0.47589436748E+03  0.17249337205E+03 0.  0.
         24    2    3    3    0    0 -0.19622552153E+02 -0.38529329668E+02 -0.23335585619E+03  0.25054615774E+03  0.80304842588E+02 0.  0.
         -6    2    1    2    0  502 -0.51707712905E+02 -0.14998466907E+02  0.72596086052E+02  0.19438748895E+03  0.17209782848E+03 0.  0.
        -24    2    5    5    0    0  0.34667856064E+02 -0.22212720294E+02  0.53320358937E+02  0.10546939168E+03  0.81150888581E+02 0.  0.
          5    1    3    3  501    0  0.71330265058E+02  0.53527796575E+02 -0.20689730282E+03  0.22534820974E+03  0.47000000000E+01 0. -1.
        -11    1    4    4    0    0 -0.10793323483E+02  0.16779749613E+02 -0.14570617625E+02  0.24705439216E+02  0.00000000000E+00 0.  1.
         12    1    4    4    0    0 -0.88292286701E+01 -0.55309079282E+02 -0.21878523857E+03  0.22584071853E+03  0.00000000000E+00 0. -1.
         -5    1    5    5    0  502 -0.86375568969E+02  0.72142533876E+01  0.19275727115E+02  0.88918097272E+02  0.47000000000E+01 0.  1.
         11    1    6    6    0    0  0.40537530747E+02  0.19321628571E+02  0.11762115935E+02  0.46421590893E+02  0.00000000000E+00 0. -1.
        -12    1    6    6    0    0 -0.58696746838E+01 -0.41534348865E+02  0.41558243002E+02  0.59047800788E+02  0.00000000000E+00 0.  1.
</event>
<event>
12    1  0.1596842E-001  0.2189719E+03  0.7818608E-02  0.1134735E+00
         21   -1    0    0  503  502  0.00000000000E+00  0.00000000000E+00  0.11574359307E+03  0.11574359307E+03  0.00000000000E+00 0. -1.
         21   -1    0    0  501  503 -0.00000000000E+00 -0.00000000000E+00 -0.43792542360E+03  0.43792542360E+03  0.00000000000E+00 0.  1.
          6    2    1    2  501    0  0.98562035851E+02  0.92934430973E+02 -0.95770819110E+02  0.23899949319E+03  0.17203902051E+03 0.  0.
         24    2    3    3    0    0  0.82098181564E+02  0.32829580442E+02 -0.12371586869E+03  0.17054025457E+03  0.77204076944E+02 0.  0.
         -6    2    1    2    0  502 -0.98562035851E+02 -0.92934430973E+02 -0.22641101143E+03  0.31466952348E+03  0.17147501142E+03 0.  0.
        -24    2    5    5    0    0 -0.68219825298E+02 -0.96194740507E+01 -0.19192250983E+03  0.21941419014E+03  0.81005297418E+02 0.  0.
          5    1    3    3  501    0  0.16463854287E+02  0.60104850532E+02  0.27945049578E+02  0.68459238612E+02  0.47000000000E+01 0. -1.
        -11    1    4    4    0    0  0.61036582636E+02 -0.12170823429E+02 -0.93716959504E+02  0.11250094160E+03  0.00000000000E+00 0.  1.
         12    1    4    4    0    0  0.21061598928E+02  0.45000403871E+02 -0.29998909184E+02  0.58039312971E+02  0.00000000000E+00 0. -1.
         -5    1    5    5    0  502 -0.30342210553E+02 -0.83314956923E+02 -0.34488501601E+02  0.95255333347E+02  0.47000000000E+01 0.  1.
         11    1    6    6    0    0 -0.34167847066E+02 -0.31831313725E+02 -0.37977190160E+02  0.60190873719E+02  0.00000000000E+00 0. -1.
        -12    1    6    6    0    0 -0.34051978232E+02  0.22211839675E+02 -0.15394531967E+03  0.15922331642E+03  0.00000000000E+00 0.  1.
</event>
<event>
12    1  0.1596842E-001  0.1860609E+03  0.7818608E-02  0.1162120E+00
         21   -1    0    0  501  502  0.00000000000E+00  0.00000000000E+00  0.97745174211E+02  0.97745174211E+02  0.00000000000E+00 0.  1.
         21   -1    0    0  502  503 -0.00000000000E+00 -0.00000000000E+00 -0.18258826017E+04  0.18258826017E+04  0.00000000000E+00 0.  1.
         -6    2    1    2    0  503 -0.13354170783E+02  0.69952004246E+02 -0.17278247502E+04  0.17378138675E+04  0.17189256467E+03 0.  0.
        -24    2    3    3    0    0 -0.42471921556E+02  0.10577018351E+03 -0.12279662971E+04  0.12358065482E+04  0.79532396781E+02 0.  0.
          6    2    1    2  501    0  0.13354170783E+02 -0.69952004246E+02 -0.31267729737E+00  0.18581390845E+03  0.17162486426E+03 0.  0.
         24    2    5    5    0    0  0.10423513136E+02 -0.85631660290E+01 -0.59495737112E+02  0.10036273654E+03  0.79692902524E+02 0.  0.
          5    1    5    5  501    0  0.29306576470E+01 -0.61388838217E+02  0.59183059815E+02  0.85451171910E+02  0.47000000000E+01 0. -1.
        -11    1    6    6    0    0 -0.13971454296E+02 -0.38478992844E+02 -0.21674036287E+02  0.46320603131E+02  0.00000000000E+00 0.  1.
         12    1    6    6    0    0  0.24394967432E+02  0.29915826815E+02 -0.37821700825E+02  0.54042133409E+02  0.00000000000E+00 0. -1.
         -5    1    3    3    0  503  0.29117750774E+02 -0.35818179265E+02 -0.49985845315E+03  0.50200731924E+03  0.47000000000E+01 0.  1.
         11    1    4    4    0    0  0.47175187192E+01 -0.10681196728E+02 -0.62036109011E+02  0.63125444693E+02  0.00000000000E+00 0. -1.
        -12    1    4    4    0    0 -0.47189440276E+02  0.11645138024E+03 -0.11659301880E+04  0.11726811035E+04  0.00000000000E+00 0.  1.
</event>
<event>
12    1  0.1596842E-001  0.1835912E+03  0.7818608E-02  0.1164712E+00
         21   -1    0    0  501  502  0.00000000000E+00  0.00000000000E+00  0.20271970997E+02  0.20271970997E+02  0.00000000000E+00 0. -1.
         21   -1    0    0  502  503 -0.00000000000E+00 -0.00000000000E+00 -0.16664588350E+04  0.16664588350E+04  0.00000000000E+00 0. -1.
         -6    2    1    2    0  503  0.53398581854E+02 -0.38088542881E+02 -0.73529655411E+03  0.75752313676E+03  0.16993567784E+03 0.  0.
        -24    2    3    3    0    0  0.37132447898E+02  0.27220964328E+02 -0.59406398612E+03  0.60100270005E+03  0.78564790369E+02 0.  0.
          6    2    1    2  501    0 -0.53398581854E+02  0.38088542881E+02 -0.91089030987E+03  0.92920766921E+03  0.17147475109E+03 0.  0.
         24    2    5    5    0    0 -0.18028207329E+02 -0.38757105686E+02 -0.32710396446E+03  0.33930521610E+03  0.79397081851E+02 0.  0.
          5    1    5    5  501    0 -0.35370374525E+02  0.76845648567E+02 -0.58378634541E+03  0.58990245311E+03  0.47000000000E+01 0. -1.
        -13    1    6    6    0    0 -0.40793365471E+02 -0.21782081791E+01 -0.97805455879E+02  0.10599410577E+03  0.00000000000E+00 0.  1.
         14    1    6    6    0    0  0.22765158142E+02 -0.36578897507E+02 -0.22929850858E+03  0.23331111034E+03  0.00000000000E+00 0. -1.
         -5    1    3    3    0  503  0.16266133956E+02 -0.65309507209E+02 -0.14123256799E+03  0.15652043671E+03  0.47000000000E+01 0.  1.
         11    1    4    4    0    0  0.71193351665E+01  0.29199818314E+01 -0.23724946032E+01  0.80523262323E+01  0.00000000000E+00 0. -1.
        -12    1    4    4    0    0  0.30013112731E+02  0.24300982496E+02 -0.59169149151E+03  0.59295037382E+03  0.00000000000E+00 0.  1.
</event>
<event>
12    1  0.1596842E-001  0.2154612E+03  0.7818608E-02  0.1137527E+00
         21   -1    0    0  503  502  0.00000000000E+00  0.00000000000E+00  0.45719407840E+03  0.45719407840E+03  0.00000000000E+00 0.  1.
         21   -1    0    0  501  503 -0.00000000000E+00 -0.00000000000E+00 -0.11108207942E+03  0.11108207942E+03  0.00000000000E+00 0. -1.
          6    2    1    2  501    0  0.79386625850E+02 -0.10323243499E+03  0.25818318067E+03  0.33556384882E+03  0.17025090266E+03 0.  0.
         24    2    3    3    0    0  0.90158872492E+01 -0.11369319653E+03  0.19353156261E+03  0.23931734186E+03  0.82528148115E+02 0.  0.
         -6    2    1    2    0  502 -0.79386625850E+02  0.10323243499E+03  0.87928818314E+02  0.23271230900E+03  0.17165188514E+03 0.  0.
        -24    2    5    5    0    0 -0.28225512998E+02  0.39212790528E+02 -0.23977331119E+02  0.93928121768E+02  0.76897705598E+02 0.  0.
          5    1    3    3  501    0  0.70370738601E+02  0.10460761537E+02  0.64651618062E+02  0.96246506956E+02  0.47000000000E+01 0. -1.
        -13    1    4    4    0    0  0.43892662181E+02 -0.66995485852E+02  0.13323526474E+03  0.15545609247E+03  0.00000000000E+00 0.  1.
         14    1    4    4    0    0 -0.34876774932E+02 -0.46697710679E+02  0.60296297869E+02  0.83861249389E+02  0.00000000000E+00 0. -1.
         -5    1    5    5    0  502 -0.51161112852E+02  0.64019644466E+02  0.11190614943E+03  0.13878418724E+03  0.47000000000E+01 0.  1.
         13    1    6    6    0    0 -0.47069782921E+02  0.50227737005E+02 -0.15853714645E+02  0.70638023025E+02  0.00000000000E+00 0. -1.
        -14    1    6    6    0    0  0.18844269923E+02 -0.11014946476E+02 -0.81236164742E+01  0.23290098743E+02  0.00000000000E+00 0.  1.
</event>
<event>
12    1  0.1596842E-001  0.2822912E+03  0.7818608E-02  0.1094735E+00
         21   -1    0    0  503  502  0.00000000000E+00  0.00000000000E+00  0.44541145777E+03  0.44541145777E+03  0.00000000000E+00 0.  1.
         21   -1    0    0  501  503 -0.00000000000E+00 -0.00000000000E+00 -0.52283157041E+03  0.52283157041E+03  0.00000000000E+00 0. -1.
          6    2    1    2  501    0 -0.15244566487E+03  0.16154932317E+03 -0.43208129132E+03  0.51495187978E+03  0.17071418108E+03 0.  0.
         24    2    3    3    0    0 -0.25436920633E+02  0.38891539563E+02 -0.88922220282E+02  0.12900319014E+03  0.81086824001E+02 0.  0.
         -6    2    1    2    0  502  0.15244566487E+03 -0.16154932317E+03  0.35466117868E+03  0.45329114840E+03  0.17421380255E+03 0.  0.
        -24    2    5    5    0    0  0.53711491499E+02 -0.15367273124E+03  0.25233728831E+03  0.31080344285E+03  0.80152606744E+02 0.  0.
          5    1    3    3  501    0 -0.12700874424E+03  0.12265778361E+03 -0.34315907104E+03  0.38594868963E+03  0.47000000000E+01 0. -1.
        -11    1    4    4    0    0 -0.29617537281E+01  0.48315528623E+02 -0.14258317112E+02  0.50462480102E+02  0.00000000000E+00 0.  1.
         12    1    4    4    0    0 -0.22475166905E+02 -0.94239890600E+01 -0.74663903171E+02  0.78540710042E+02  0.00000000000E+00 0. -1.
         -5    1    5    5    0  502  0.98734173372E+02 -0.78765919257E+01  0.10232389037E+03  0.14248770555E+03  0.47000000000E+01 0.  1.
         13    1    6    6    0    0 -0.85074672127E+01 -0.71612111344E+02  0.65286537854E+02  0.97277970345E+02  0.00000000000E+00 0. -1.
        -14    1    6    6    0    0  0.62218958711E+02 -0.82060619899E+02  0.18705075046E+03  0.21352547251E+03  0.00000000000E+00 0.  1.
</event>
<event>
12    1  0.1596842E-001  0.2860455E+03  0.7818608E-02  0.1092557E+00
         21   -1    0    0  501  502  0.00000000000E+00  0.00000000000E+00  0.24677758644E+03  0.24677758644E+03  0.00000000000E+00 0. -1.
         21   -1    0    0  502  503 -0.00000000000E+00 -0.00000000000E+00 -0.39836164578E+03  0.39836164578E+03  0.00000000000E+00 0. -1.
         -6    2    1    2    0  503  0.10416536067E+03  0.20210578443E+03 -0.20884978918E+03  0.35341779564E+03  0.17201375925E+03 0.  0.
        -24    2    3    3    0    0  0.10439646163E+02  0.15696500199E+03 -0.11240841215E+03  0.21148390609E+03  0.85690100659E+02 0.  0.
          6    2    1    2  501    0 -0.10416536067E+03 -0.20210578443E+03  0.57265729847E+02  0.29172143658E+03  0.17356515284E+03 0.  0.
         24    2    5    5    0    0 -0.62534195859E+02 -0.13438744767E+03 -0.33069671729E+02  0.17129925509E+03  0.79242159629E+02 0.  0.
          5    1    5    5  501    0 -0.41631164811E+02 -0.67718336753E+02  0.90335401575E+02  0.12042218149E+03  0.47000000000E+01 0. -1.
        -11    1    6    6    0    0 -0.10603007148E+02 -0.21036780758E+02 -0.40005080955E+02  0.46426031572E+02  0.00000000000E+00 0.  1.
         12    1    6    6    0    0 -0.51931188711E+02 -0.11335066692E+03  0.69354092265E+01  0.12487322352E+03  0.00000000000E+00 0. -1.
         -5    1    3    3    0  503  0.93725714506E+02  0.45140782434E+02 -0.96441377037E+02  0.14193388955E+03  0.47000000000E+01 0.  1.
         13    1    4    4    0    0  0.27909671194E+02  0.10322632790E+03 -0.29103915239E+02  0.11082266195E+03  0.00000000000E+00 0. -1.
        -14    1    4    4    0    0 -0.17470025031E+02  0.53738674088E+02 -0.83304496907E+02  0.10066124414E+03  0.00000000000E+00 0.  1.
</event>
<event>
12    1  0.1596842E-001  0.2001477E+03  0.7818608E-02  0.1149641E+00
         21   -1    0    0  501  502  0.00000000000E+00  0.00000000000E+00  0.54606793886E+03  0.54606793886E+03  0.00000000000E+00 0. -1.
         21   -1    0    0  502  503 -0.00000000000E+00 -0.00000000000E+00 -0.73396947565E+02  0.73396947565E+02  0.00000000000E+00 0. -1.
         -6    2    1    2    0  503  0.42161263310E+02  0.92488936596E+02  0.24685044368E+03  0.31779588495E+03  0.17241608808E+03 0.  0.
        -24    2    3    3    0    0  0.53452269536E+02  0.26761475666E+02  0.22705507979E+03  0.24807119511E+03  0.80074882981E+02 0.  0.
          6    2    1    2  501    0 -0.42161263310E+02 -0.92488936596E+02  0.22582054761E+03  0.30166900147E+03  0.17227156240E+03 0.  0.
         24    2    5    5    0    0 -0.48463184587E+02  0.63481667920E+01  0.75806091195E+02  0.12184988583E+03  0.81925891709E+02 0.  0.
          5    1    5    5  501    0  0.63019212774E+01 -0.98837103388E+02  0.15001445641E+03  0.17981911564E+03  0.47000000000E+01 0. -1.
        -13    1    6    6    0    0  0.47693873646E+01 -0.70776811338E+01 -0.14114890566E+02  0.16494567643E+02  0.00000000000E+00 0.  1.
         14    1    6    6    0    0 -0.53232571952E+02  0.13425847926E+02  0.89920981761E+02  0.10535531819E+03  0.00000000000E+00 0. -1.
         -5    1    3    3    0  503 -0.11291006226E+02  0.65727460931E+02  0.19795363892E+02  0.69724689842E+02  0.47000000000E+01 0.  1.
         13    1    4    4    0    0  0.41241218782E+02  0.49136427786E+02  0.10238429969E+03  0.12082123772E+03  0.00000000000E+00 0. -1.
        -14    1    4    4    0    0  0.12211050754E+02 -0.22374952120E+02  0.12467078010E+03  0.12724995738E+03  0.00000000000E+00 0.  1.
</event>
<event>
12    1  0.1596842E-001  0.2535491E+03  0.7818608E-02  0.1111158E+00
         21   -1    0    0  503  502  0.00000000000E+00  0.00000000000E+00  0.84352063603E+02  0.84352063603E+02  0.00000000000E+00 0. -1.
         21   -1    0    0  501  503 -0.00000000000E+00 -0.00000000000E+00 -0.77429089977E+03  0.77429089977E+03  0.00000000000E+00 0.  1.
          6    2    1    2  501    0  0.16099850203E+03 -0.92554654284E+02 -0.40161116977E+03  0.47468987676E+03  0.17190714275E+03 0.  0.
         24    2    3    3    0    0  0.42611851790E+02  0.14517489970E+01 -0.87613017062E+02  0.12616508178E+03  0.80148048093E+02 0.  0.
         -6    2    1    2    0  502 -0.16099850203E+03  0.92554654284E+02 -0.28832766640E+03  0.38395308661E+03  0.17262748281E+03 0.  0.
        -24    2    5    5    0    0 -0.58866440627E+02  0.37457915750E+02 -0.47054195786E+02  0.11618156799E+03  0.80098103069E+02 0.  0.
          5    1    3    3  501    0  0.11838665024E+03 -0.94006403281E+02 -0.31399815270E+03  0.34852479498E+03  0.47000000000E+01 0. -1.
        -13    1    4    4    0    0  0.15233049946E+02  0.12424705624E+02 -0.93959844710E+02  0.95994122416E+02  0.00000000000E+00 0.  1.
         14    1    4    4    0    0  0.27378801845E+02 -0.10972956627E+02  0.63468276485E+01  0.30170959361E+02  0.00000000000E+00 0. -1.
         -5    1    5    5    0  502 -0.10213206141E+03  0.55096738534E+02 -0.24127347061E+03  0.26777151862E+03  0.47000000000E+01 0.  1.
         13    1    6    6    0    0  0.95388380176E+01  0.34798436168E+02 -0.26292810791E+02  0.44645632371E+02  0.00000000000E+00 0. -1.
        -14    1    6    6    0    0 -0.68405278645E+02  0.26594795817E+01 -0.20761384995E+02  0.71535935620E+02  0.00000000000E+00 0.  1.
</event>
<event>
12    1  0.1596842E-001  0.2370142E+03  0.7818608E-02  0.1121847E+00
         21   -1    0    0  501  502  0.00000000000E+00  0.00000000000E+00  0.15895532590E+03  0.15895532590E+03  0.00000000000E+00 0. -1.
         21   -1    0    0  502  503 -0.00000000000E+00 -0.00000000000E+00 -0.42378224821E+03  0.42378224821E+03  0.00000000000E+00 0.  1.
         -6    2    1    2    0  503  0.14349687106E+03  0.77968401441E+02 -0.25158283959E+03  0.34564380148E+03  0.17177103567E+03 0.  0.
        -24    2    3    3    0    0  0.40226868321E+02  0.22695197212E+02 -0.20482724386E+03  0.21943763560E+03  0.63760514282E+02 0.  0.
          6    2    1    2  501    0 -0.14349687106E+03 -0.77968401441E+02 -0.13244082716E+02  0.23709377263E+03  0.17136985635E+03 0.  0.
         24    2    5    5    0    0 -0.38060067473E+02 -0.92486786340E+02  0.91652254603E+01  0.12822701855E+03  0.79723224625E+02 0.  0.
          5    1    5    5  501    0 -0.10543680359E+03  0.14518384899E+02 -0.22409308176E+02  0.10886675408E+03  0.47000000000E+01 0. -1.
        -11    1    6    6    0    0  0.28310180057E+01 -0.81478929557E+01 -0.26556044739E+02  0.27921789605E+02  0.00000000000E+00 0.  1.
         12    1    6    6    0    0 -0.40891085479E+02 -0.84338893384E+02  0.35721270199E+02  0.10030522894E+03  0.00000000000E+00 0. -1.
         -5    1    3    3    0  503  0.10327000274E+03  0.55273204230E+02 -0.46755595734E+02  0.12620616587E+03  0.47000000000E+01 0.  1.
         11    1    4    4    0    0 -0.13557495620E+02  0.38411251192E+01 -0.91578775402E+02  0.92656527205E+02  0.00000000000E+00 0. -1.
        -12    1    4    4    0    0  0.53784363941E+02  0.18854072092E+02 -0.11324846845E+03  0.12678110840E+03  0.00000000000E+00 0.  1.
</event>
<event>
12    1  0.1596842E-001  0.2371782E+03  0.7818608E-02  0.1122617E+00
         21   -1    0    0  501  502  0.00000000000E+00  0.00000000000E+00  0.81071297443E+02  0.81071297443E+02  0.00000000000E+00 0.  1.
         21   -1    0    0  502  503 -0.00000000000E+00 -0.00000000000E+00 -0.82404746873E+03  0.82404746873E+03  0.00000000000E+00 0. -1.
         -6    2    1    2    0  503  0.76484416587E+02 -0.13644429557E+03 -0.56548592527E+03  0.61321107006E+03  0.17828789354E+03 0.  0.
        -24    2    3    3    0    0  0.11725217240E+03 -0.84186943306E+02 -0.45774148243E+03  0.48662593766E+03  0.80262227200E+02 0.  0.
          6    2    1    2  501    0 -0.76484416587E+02  0.13644429557E+03 -0.17749024602E+03  0.29190769612E+03  0.17099825685E+03 0.  0.
         24    2    5    5    0    0  0.23111710214E+02  0.51519987656E+02 -0.10065565404E+03  0.14006181678E+03  0.79355475869E+02 0.  0.
          5    1    5    5  501    0 -0.99596126802E+02  0.84924307918E+02 -0.76834591971E+02  0.15184587934E+03  0.47000000000E+01 0. -1.
        -11    1    6    6    0    0  0.10543448896E+02  0.67699789767E+01  0.12520002054E+02  0.17712915666E+02  0.00000000000E+00 0.  1.
         12    1    6    6    0    0  0.12568261319E+02  0.44750008680E+02 -0.11317565610E+03  0.12234890111E+03  0.00000000000E+00 0. -1.
         -5    1    3    3    0  503 -0.40767755809E+02 -0.52257352269E+02 -0.10774444285E+03  0.12658513240E+03  0.47000000000E+01 0.  1.
         13    1    4    4    0    0  0.27731341692E+02  0.90141126838E+01 -0.15073023966E+03  0.15352487319E+03  0.00000000000E+00 0. -1.
        -14    1    4    4    0    0  0.89520830704E+02 -0.93201055990E+02 -0.30701124277E+03  0.33310106447E+03  0.00000000000E+00 0.  1.
</event>
<event>
12    1  0.1596842E-001  0.1973726E+03  0.7818608E-02  0.1152070E+00
         21   -1    0    0  503  502  0.00000000000E+00  0.00000000000E+00  0.12570893857E+03  0.12570893857E+03  0.00000000000E+00 0. -1.
         21   -1    0    0  501  503 -0.00000000000E+00 -0.00000000000E+00 -0.61233274230E+03  0.61233274230E+03  0.00000000000E+00 0. -1.
          6    2    1    2  501    0 -0.18502900132E+02  0.92604124036E+02 -0.50281685854E+03  0.54000589445E+03  0.17281114461E+03 0.  0.
         24    2    3    3    0    0  0.44241482272E+02  0.75443857331E+02 -0.20519235072E+03  0.23531954763E+03  0.74982026796E+02 0.  0.
         -6    2    1    2    0  502  0.18502900132E+02 -0.92604124036E+02  0.16193054808E+02  0.19803578643E+03  0.17331496352E+03 0.  0.
        -24    2    5    5    0    0  0.63849802813E+02 -0.73945930123E+02  0.52844921588E+02  0.13663611931E+03  0.79574150719E+02 0.  0.
          5    1    3    3  501    0 -0.62744382404E+02  0.17160266705E+02 -0.29762450783E+03  0.30468634681E+03  0.47000000000E+01 0. -1.
        -11    1    4    4    0    0  0.29171345224E+02  0.17563363683E+02 -0.17412091419E+02  0.38244215950E+02  0.00000000000E+00 0.  1.
         12    1    4    4    0    0  0.15070137048E+02  0.57880493648E+02 -0.18778025930E+03  0.19707533168E+03  0.00000000000E+00 0. -1.
         -5    1    5    5    0  502 -0.45346902681E+02 -0.18658193914E+02 -0.36651866780E+02  0.61399667111E+02  0.47000000000E+01 0.  1.
         13    1    6    6    0    0  0.72714804210E+02 -0.63607559530E+02  0.16741085288E+02  0.98049111762E+02  0.00000000000E+00 0. -1.
        -14    1    6    6    0    0 -0.88650013968E+01 -0.10338370593E+02  0.36103836300E+02  0.38587007553E+02  0.00000000000E+00 0.  1.
</event>
<event>
12    1  0.1596842E-001  0.2598464E+03  0.7818608E-02  0.1107842E+00
         21   -1    0    0  501  502  0.00000000000E+00  0.00000000000E+00  0.60746767206E+03  0.60746767206E+03  0.00000000000E+00 0. -1.
         21   -1    0    0  502  503 -0.00000000000E+00 -0.00000000000E+00 -0.25216744258E+03  0.25216744258E+03  0.00000000000E+00 0. -1.
         -6    2    1    2    0  503 -0.13584604846E+03  0.13026808527E+03 -0.14630414704E+03  0.29472175562E+03  0.17329768283E+03 0.  0.
        -24    2    3    3    0    0 -0.31234419645E+02  0.12338803442E+03 -0.85329014634E+02  0.17335048738E+03  0.81050322192E+02 0.  0.
          6    2    1    2  501    0  0.13584604846E+03 -0.13026808527E+03  0.50160437652E+03  0.56491335902E+03  0.17915420658E+03 0.  0.
         24    2    5    5    0    0  0.38516388874E+02 -0.64330175950E+02  0.37830503927E+03  0.39448540624E+03  0.82958720196E+02 0.  0.
          5    1    5    5  501    0  0.97329659584E+02 -0.65937909321E+02  0.12329933726E+03  0.17042795278E+03  0.47000000000E+01 0. -1.
        -11    1    6    6    0    0 -0.13552253941E+02 -0.15263962871E+02  0.18217803453E+02  0.27359468418E+02  0.00000000000E+00 0.  1.
         12    1    6    6    0    0  0.52068642815E+02 -0.49066213079E+02  0.36008723581E+03  0.36712593783E+03  0.00000000000E+00 0. -1.
         -5    1    3    3    0  503 -0.10461162881E+03  0.68800508457E+01 -0.60975132408E+02  0.12137126824E+03  0.47000000000E+01 0.  1.
         13    1    4    4    0    0 -0.41015233785E+02  0.85636160120E+02 -0.93770226363E+02  0.13344907896E+03  0.00000000000E+00 0. -1.
        -14    1    4    4    0    0  0.97808141399E+01  0.37751874305E+02  0.84412117293E+01  0.39901408424E+02  0.00000000000E+00 0.  1.
</event>
<event>
12    1  0.1596842E-001  0.1830305E+03  0.7818608E-02  0.1165632E+00
         21   -1    0    0  501  502  0.00000000000E+00  0.00000000000E+00  0.63820010126E+02  0.63820010126E+02  0.00000000000E+00 0.  1.
         21   -1    0    0  502  503 -0.00000000000E+00 -0.00000000000E+00 -0.12124581738E+04  0.12124581738E+04  0.00000000000E+00 0.  1.
         -6    2    1    2    0  503  0.46936388509E+02 -0.22491757471E+02 -0.10599527430E+04  0.10756393439E+04  0.17547443385E+03 0.  0.
        -24    2    3    3    0    0  0.30322420008E+02 -0.94057745794E+00 -0.10340915202E+04  0.10378058910E+04  0.82313191159E+02 0.  0.
          6    2    1    2  501    0 -0.46936388509E+02  0.22491757471E+02 -0.88685420650E+02  0.20063884005E+03  0.17228446413E+03 0.  0.
         24    2    5    5    0    0 -0.26984459888E+02 -0.11907775641E+02  0.18751457553E+02  0.85982047263E+02  0.78557870993E+02 0.  0.
          5    1    5    5  501    0 -0.19951928621E+02  0.34399533112E+02 -0.10743687820E+03  0.11465679279E+03  0.47000000000E+01 0. -1.
        -11    1    6    6    0    0 -0.37388483763E+02 -0.22378182474E+02 -0.17410659037E+02  0.46923478314E+02  0.00000000000E+00 0.  1.
         12    1    6    6    0    0  0.10404023875E+02  0.10470406833E+02  0.36162116590E+02  0.39058568949E+02  0.00000000000E+00 0. -1.
         -5    1    3    3    0  503  0.16613968501E+02 -0.21551180013E+02 -0.25861222820E+02  0.37833452857E+02  0.47000000000E+01 0.  1.
         11    1    4    4    0    0 -0.26112056579E+02 -0.51845998366E+01 -0.50383073218E+03  0.50453357298E+03  0.00000000000E+00 0. -1.
        -12    1    4    4    0    0  0.56434476587E+02  0.42440223786E+01 -0.53026078803E+03  0.53327231805E+03  0.00000000000E+00 0.  1.
</event>
<event>
12    1  0.1596842E-001  0.1924713E+03  0.7818608E-02  0.1157756E+00
         21   -1    0    0  501  502  0.00000000000E+00  0.00000000000E+00  0.58053364805E+02  0.58053364805E+02  0.00000000000E+00 0. -1.
         21   -1    0    0  502  503 -0.00000000000E+00 -0.00000000000E+00 -0.90834330149E+03  0.90834330149E+03  0.00000000000E+00 0. -1.
         -6    2    1    2    0  503 -0.68218533953E+02  0.17288699806E+02 -0.70420894220E+03  0.73003797610E+03  0.17914392194E+03 0.  0.
        -24    2    3    3    0    0 -0.49858737512E+02  0.78116034650E+02 -0.43296080734E+03  0.45140795717E+03  0.87898091701E+02 0.  0.
          6    2    1    2  501    0  0.68218533953E+02 -0.17288699806E+02 -0.14608099449E+03  0.23635869019E+03  0.17196832837E+03 0.  0.
         24    2    5    5    0    0 -0.20268434721E+02 -0.40582254357E+02 -0.10826874177E+03  0.13724063046E+03  0.71099517512E+02 0.  0.
          5    1    5    5  501    0  0.88486968674E+02  0.23293554550E+02 -0.37812252717E+02  0.99118059728E+02  0.47000000000E+01 0. -1.
        -13    1    6    6    0    0 -0.23352316988E+02 -0.15699549814E+02 -0.10857865019E+03  0.11216563578E+03  0.00000000000E+00 0.  1.
         14    1    6    6    0    0  0.30838822665E+01 -0.24882704543E+02  0.30990841683E+00  0.25074994685E+02  0.00000000000E+00 0. -1.
         -5    1    3    3    0  503 -0.18359796441E+02 -0.60827334843E+02 -0.27124813485E+03  0.27863001893E+03  0.47000000000E+01 0.  1.
         11    1    4    4    0    0 -0.32097680483E+02  0.37868325400E+01 -0.26396044947E+03  0.26593179592E+03  0.00000000000E+00 0. -1.
        -12    1    4    4    0    0 -0.17761057028E+02  0.74329202110E+02 -0.16900035787E+03  0.18547616126E+03  0.00000000000E+00 0.  1.
</event>
<event>
12    1  0.1596842E-001  0.1980715E+03  0.7818608E-02  0.1151917E+00
         21   -1    0    0  503  502  0.00000000000E+00  0.00000000000E+00  0.51288296519E+03  0.51288296519E+03  0.00000000000E+00 0.  1.
         21   -1    0    0  501  503 -0.00000000000E+00 -0.00000000000E+00 -0.24162066262E+03  0.24162066262E+03  0.00000000000E+00 0. -1.
          6    2    1    2  501    0  0.81419579080E+02  0.50804593941E+02 -0.17741911048E+03  0.26404738412E+03  0.17039138966E+03 0.  0.
         24    2    3    3    0    0  0.80172251042E+02  0.77292692817E+02 -0.73086716420E+02  0.15629529058E+03  0.81760623416E+02 0.  0.
         -6    2    1    2    0  502 -0.81419579080E+02 -0.50804593941E+02  0.44868141305E+03  0.49045624370E+03  0.17326875639E+03 0.  0.
        -24    2    5    5    0    0 -0.68961300542E+02 -0.98083131932E+02  0.28476349739E+03  0.31933744890E+03  0.80685779922E+02 0.  0.
          5    1    3    3  501    0  0.12473280380E+01 -0.26488098877E+02 -0.10433239406E+03  0.10775209353E+03  0.47000000000E+01 0. -1.
        -13    1    4    4    0    0 -0.36525489395E+01 -0.24785613079E+01  0.11920551701E+02  0.12711566889E+02  0.00000000000E+00 0.  1.
         14    1    4    4    0    0  0.83824799982E+02  0.79771254125E+02 -0.85007268121E+02  0.14358372370E+03  0.00000000000E+00 0. -1.
         -5    1    5    5    0  502 -0.12458278538E+02  0.47278537991E+02  0.16391791566E+03  0.17111879480E+03  0.47000000000E+01 0.  1.
         13    1    6    6    0    0 -0.86781795892E+02 -0.85165772089E+02  0.22682820925E+03  0.25736224538E+03  0.00000000000E+00 0. -1.
        -14    1    6    6    0    0  0.17820495349E+02 -0.12917359843E+02  0.57935288141E+02  0.61975203523E+02  0.00000000000E+00 0.  1.
</event>
<event>
12    1  0.1596842E-001  0.3342891E+03  0.7818608E-02  0.1069273E+00
         21   -1    0    0  503  502  0.00000000000E+00  0.00000000000E+00  0.80599980709E+03  0.80599980709E+03  0.00000000000E+00 0.  1.
         21   -1    0    0  501  503 -0.00000000000E+00 -0.00000000000E+00 -0.17197990232E+03  0.17197990232E+03  0.00000000000E+00 0. -1.
          6    2    1    2  501    0 -0.47597448935E+02  0.28248755688E+03  0.10157209428E+03  0.34937955369E+03  0.17229174462E+03 0.  0.
         24    2    3    3    0    0  0.19347177041E+02  0.24024249390E+03  0.79600756412E+02  0.26709311507E+03  0.83136529641E+02 0.  0.
         -6    2    1    2    0  502  0.47597448935E+02 -0.28248755688E+03  0.53244781049E+03  0.62860015572E+03  0.17196728740E+03 0.  0.
        -24    2    5    5    0    0  0.11723441237E+02 -0.18616558448E+03  0.21863632227E+03  0.29835084544E+03  0.80101945313E+02 0.  0.
          5    1    3    3  501    0 -0.66944625976E+02  0.42245062972E+02  0.21971337873E+02  0.82286438618E+02  0.47000000000E+01 0. -1.
        -11    1    4    4    0    0 -0.54306488123E+01  0.16203363749E+03  0.88269144572E+02  0.18459640708E+03  0.00000000000E+00 0.  1.
         12    1    4    4    0    0  0.24777825853E+02  0.78208856414E+02 -0.86683881601E+01  0.82496707988E+02  0.00000000000E+00 0. -1.
         -5    1    5    5    0  502  0.35874007698E+02 -0.96321972396E+02  0.31381148822E+03  0.33024931027E+03  0.47000000000E+01 0.  1.
         11    1    6    6    0    0 -0.17596839613E+02 -0.10679623282E+03  0.16768331915E+03  0.19958151124E+03  0.00000000000E+00 0. -1.
        -12    1    6    6    0    0  0.29320280850E+02 -0.79369351658E+02  0.50953003122E+02  0.98769334203E+02  0.00000000000E+00 0.  1.
</event>
<event>
12    1  0.1596842E-001  0.1792833E+03  0.7818608E-02  0.1169931E+00
         21   -1    0    0  503  502  0.00000000000E+00  0.00000000000E+00  0.86732504594E+03  0.86732504594E+03  0.00000000000E+00 0.  1.
         21   -1    0    0  501  503 -0.00000000000E+00 -0.00000000000E+00 -0.97532948386E+02  0.97532948386E+02  0.00000000000E+00 0.  1.
          6    2    1    2  501    0  0.21538130794E+01  0.25484905236E+02  0.36531875213E+01  0.17932050365E+03  0.17744964904E+03 0.  0.
         24    2    3    3    0    0  0.62902088853E+02  0.36398213651E+02  0.30774434341E+02  0.11174014157E+03  0.79103038437E+02 0.  0.
         -6    2    1    2    0  502 -0.21538130794E+01 -0.25484905236E+02  0.76613891004E+03  0.78553749068E+03  0.17159895246E+03 0.  0.
        -24    2    5    5    0    0  0.50948151865E+02  0.22123589001E+01  0.27603908619E+03  0.29176944345E+03  0.79568978383E+02 0.  0.
          5    1    3    3  501    0 -0.60748275773E+02 -0.10913308416E+02 -0.27121246820E+02  0.67580362081E+02  0.47000000000E+01 0. -1.
        -13    1    4    4    0    0  0.37974797656E+01  0.45299858795E+02  0.22576965581E+01  0.45514780601E+02  0.00000000000E+00 0.  1.
         14    1    4    4    0    0  0.59104609087E+02 -0.89016451438E+01  0.28516737783E+02  0.66225360968E+02  0.00000000000E+00 0. -1.
         -5    1    5    5    0  502 -0.53101964944E+02 -0.27697264136E+02  0.49009982385E+03  0.49376804723E+03  0.47000000000E+01 0.  1.
         13    1    6    6    0    0 -0.12909230326E+02  0.72680654415E+01  0.94032403760E+01  0.17546906635E+02  0.00000000000E+00 0. -1.
        -14    1    6    6    0    0  0.63857382191E+02 -0.50557065414E+01  0.26663584581E+03  0.27422253682E+03  0.00000000000E+00 0.  1.
</event>
<event>
12    1  0.1596842E-001  0.2197275E+03  0.7818608E-02  0.1134701E+00
         21   -1    0    0  501  502  0.00000000000E+00  0.00000000000E+00  0.16589229295E+03  0.16589229295E+03  0.00000000000E+00 0. -1.
         21   -1    0    0  502  503 -0.00000000000E+00 -0.00000000000E+00 -0.42315416778E+03  0.42315416778E+03  0.00000000000E+00 0. -1.
         -6    2    1    2    0  503 -0.76757178670E+02 -0.11244107283E+03 -0.29520898897E+03  0.36606627597E+03  0.16828996376E+03 0.  0.
        -24    2    3    3    0    0 -0.77377887475E+02 -0.18548089066E+02 -0.99895908337E+02  0.14930473154E+03  0.77339131623E+02 0.  0.
          6    2    1    2  501    0  0.76757178670E+02  0.11244107283E+03  0.37947114137E+02  0.22298018476E+03  0.17246889571E+03 0.  0.
         24    2    5    5    0    0  0.21966907832E+02 -0.81735877012E+01  0.34070232256E+02  0.90364234262E+02  0.80346509148E+02 0.  0.
          5    1    5    5  501    0  0.54790270838E+02  0.12061466053E+03  0.38768818810E+01  0.13261595050E+03  0.47000000000E+01 0. -1.
        -11    1    6    6    0    0 -0.25831274510E+02 -0.19886960791E+02  0.43891510222E+01  0.32893929516E+02  0.00000000000E+00 0.  1.
         12    1    6    6    0    0  0.47798182343E+02  0.11713373090E+02  0.29681081233E+02  0.57470304746E+02  0.00000000000E+00 0. -1.
         -5    1    3    3    0  503  0.62070880497E+00 -0.93892983763E+02 -0.19531308063E+03  0.21676154443E+03  0.47000000000E+01 0.  1.
         13    1    4    4    0    0 -0.60395728389E+02 -0.32374914112E+02 -0.10631351469E+03  0.12648455430E+03  0.00000000000E+00 0. -1.
        -14    1    4    4    0    0 -0.16982159086E+02  0.13826825046E+02  0.64176063499E+01  0.22820177241E+02  0.00000000000E+00 0.  1.
</event>
<event>
12    1  0.1596842E-001  0.2841570E+03  0.7818608E-02  0.1093477E+00
         21   -1    0    0  501  502  0.00000000000E+00  0.00000000000E+00  0.30821731320E+03  0.30821731320E+03  0.00000000000E+00 0.  1.
         21   -1    0    0  502  503 -0.00000000000E+00 -0.00000000000E+00 -0.30991188944E+03  0.30991188944E+03  0.00000000000E+00 0. -1.
         -6    2    1    2    0  503  0.17266625507E+03 -0.14683190762E+03 -0.12272333611E+03  0.30927140437E+03  0.17092261289E+03 0.  0.
        -24    2    3    3    0    0  0.55928645162E+02 -0.64621496528E+02  0.50208282120E+01  0.11762881312E+03  0.80668319667E+02 0.  0.
          6    2    1    2  501    0 -0.17266625507E+03  0.14683190762E+03  0.12102875987E+03  0.30885779827E+03  0.17138242063E+03 0.  0.
         24    2    5    5    0    0 -0.61738685901E+02  0.34119412957E+02  0.10587580494E+03  0.14992154030E+03  0.79315714058E+02 0.  0.
          5    1    5    5  501    0 -0.11092756917E+03  0.11271249466E+03  0.15152954929E+02  0.15893625797E+03  0.47000000000E+01 0. -1.
        -13    1    6    6    0    0 -0.47694269661E+01 -0.23051982952E+02  0.36816291587E+02  0.43698749156E+02  0.00000000000E+00 0.  1.
         14    1    6    6    0    0 -0.56969258935E+02  0.57171395908E+02  0.69059513357E+02  0.10622279115E+03  0.00000000000E+00 0. -1.
         -5    1    3    3    0  503  0.11673760991E+03 -0.82210411089E+02 -0.12774416433E+03  0.19164259124E+03  0.47000000000E+01 0.  1.
         13    1    4    4    0    0 -0.19027342618E+02 -0.95585490442E+01  0.11854824193E+02  0.24370935222E+02  0.00000000000E+00 0. -1.
        -14    1    4    4    0    0  0.74955987780E+02 -0.55062947484E+02 -0.68339959813E+01  0.93257877902E+02  0.00000000000E+00 0.  1.
</event>
<event>
12    1  0.1596842E-001  0.2131613E+03  0.7818608E-02  0.1140946E+00
         21   -1    0    0  501  502  0.00000000000E+00  0.00000000000E+00  0.24267077979E+04  0.24267077979E+04  0.00000000000E+00 0. -1.
         21   -1    0    0  502  503 -0.00000000000E+00 -0.00000000000E+00 -0.10553305004E+03  0.10553305004E+03  0.00000000000E+00 0.  1.
         -6    2    1    2    0  503 -0.83441872341E+02 -0.69433740279E+02  0.25408404165E+01  0.20382917083E+03  0.17250010047E+03 0.  0.
        -24    2    3    3    0    0 -0.81768580564E+02 -0.39934149625E+02  0.63113919496E+02  0.13627020649E+03  0.79406330155E+02 0.  0.
          6    2    1    2  501    0  0.83441872341E+02  0.69433740279E+02  0.23186339074E+04  0.23284116771E+04  0.18345067729E+03 0.  0.
         24    2    5    5    0    0  0.37568001822E+01  0.99358574188E+02  0.13231104897E+04  0.13292449384E+04  0.79903057321E+02 0.  0.
          5    1    5    5  501    0  0.79685072159E+02 -0.29924833909E+02  0.99552341772E+03  0.99916673866E+03  0.47000000000E+01 0. -1.
        -13    1    6    6    0    0 -0.33993703300E+02  0.28429093527E+02  0.61390018703E+03  0.61549754253E+03  0.00000000000E+00 0.  1.
         14    1    6    6    0    0  0.37750503482E+02  0.70929480661E+02  0.70921030267E+03  0.71374739590E+03  0.00000000000E+00 0. -1.
         -5    1    3    3    0  503 -0.16732917771E+01 -0.29499590654E+02 -0.60573079079E+02  0.67558964344E+02  0.47000000000E+01 0.  1.
         13    1    4    4    0    0 -0.78180961415E+02 -0.69611358586E+01  0.18435482697E+02  0.80626218828E+02  0.00000000000E+00 0. -1.
        -14    1    4    4    0    0 -0.35876191486E+01 -0.32973013767E+02  0.44678436799E+02  0.55643987661E+02  0.00000000000E+00 0.  1.
</event>
<event>
12    1  0.1596842E-001  0.1873613E+03  0.7818608E-02  0.1162346E+00
         21   -1    0    0  501  502  0.00000000000E+00  0.00000000000E+00  0.15983294955E+03  0.15983294955E+03  0.00000000000E+00 0. -1.
         21   -1    0    0  502  503 -0.00000000000E+00 -0.00000000000E+00 -0.21273292031E+03  0.21273292031E+03  0.00000000000E+00 0. -1.
         -6    2    1    2    0  503  0.75202987405E+01 -0.55957626847E+02 -0.18160601976E+02  0.18823937661E+03  0.17865174095E+03 0.  0.
        -24    2    3    3    0    0 -0.44816560489E+02  0.15335207919E+02  0.67544788309E+01  0.96235755078E+02  0.83498532173E+02 0.  0.
          6    2    1    2  501    0 -0.75202987405E+01  0.55957626847E+02 -0.34739368785E+02  0.18432649325E+03  0.17199308555E+03 0.  0.
         24    2    5    5    0    0  0.21559498251E+02  0.72379716853E+02  0.27805070578E+02  0.11326865393E+03  0.79705900896E+02 0.  0.
          5    1    5    5  501    0 -0.29079796992E+02 -0.16422090006E+02 -0.62544439363E+02  0.71057839318E+02  0.47000000000E+01 0. -1.
        -11    1    6    6    0    0  0.43703535163E+02  0.13911452934E+02  0.20786398903E+02  0.50354760329E+02  0.00000000000E+00 0.  1.
         12    1    6    6    0    0 -0.22144036912E+02  0.58468263919E+02  0.70186716759E+01  0.62913893605E+02  0.00000000000E+00 0. -1.
         -5    1    3    3    0  503  0.52336859229E+02 -0.71292834766E+02 -0.24915080807E+02  0.92003621530E+02  0.47000000000E+01 0.  1.
         13    1    4    4    0    0 -0.31029307375E+02 -0.43265132637E+01 -0.35676912343E+02  0.47480298098E+02  0.00000000000E+00 0. -1.
        -14    1    4    4    0    0 -0.13787253113E+02  0.19661721183E+02  0.42431391174E+02  0.48755456979E+02  0.00000000000E+00 0.  1.
</event>
<event>
12    1  0.1596842E-001  0.1919307E+03  0.7818608E-02  0.1157200E+00
         21   -1    0    0  503  502  0.00000000000E+00  0.00000000000E+00  0.22380767657E+03  0.22380767657E+03  0.00000000000E+00 0. -1.
         21   -1    0    0  501  503 -0.00000000000E+00 -0.00000000000E+00 -0.24941293024E+03  0.24941293024E+03  0.00000000000E+00 0. -1.
          6    2    1    2  501    0  0.49533160130E+02  0.66943256208E+02 -0.15227742822E+03  0.24500166415E+03  0.17292329741E+03 0.  0.
         24    2    3    3    0    0  0.29192181201E+02  0.10827643339E+03 -0.62019347030E+02  0.14355809275E+03  0.64703609766E+02 0.  0.
         -6    2    1    2    0  502 -0.49533160130E+02 -0.66943256208E+02  0.12667217454E+03  0.22821894266E+03  0.17059634369E+03 0.  0.
        -24    2    5    5    0    0 -0.84057490670E+02 -0.25667697808E+02  0.12622986020E+03  0.17420147546E+03  0.81778261158E+02 0.  0.
          5    1    3    3  501    0  0.20340978928E+02 -0.41333177180E+02 -0.90258081186E+02  0.10144357140E+03  0.47000000000E+01 0. -1.
        -13    1    4    4    0    0  0.20853739734E+01 -0.81370540870E+01  0.95775360030E+00  0.84544500580E+01  0.00000000000E+00 0.  1.
         14    1    4    4    0    0  0.27106807228E+02  0.11641348747E+03 -0.62977100630E+02  0.13510364269E+03  0.00000000000E+00 0. -1.
         -5    1    5    5    0  502  0.34524330541E+02 -0.41275558399E+02  0.44231434518E+00  0.54017467198E+02  0.47000000000E+01 0.  1.
         11    1    6    6    0    0 -0.63559988505E+02 -0.19507224228E+02  0.25476952314E+02  0.71200274122E+02  0.00000000000E+00 0. -1.
        -12    1    6    6    0    0 -0.20497502166E+02 -0.61604735801E+01  0.10075290788E+03  0.10300120134E+03  0.00000000000E+00 0.  1.
</event>
<event>
12    1  0.1596842E-001  0.1854178E+03  0.7818608E-02  0.1162707E+00
         21   -1    0    0  503  502  0.00000000000E+00  0.00000000000E+00  0.33187221364E+03  0.33187221364E+03  0.00000000000E+00 0. -1.
         21   -1    0    0  501  503 -0.00000000000E+00 -0.00000000000E+00 -0.10484571840E+03  0.10484571840E+03  0.00000000000E+00 0. -1.
          6    2    1    2  501    0 -0.20824119246E+02  0.63989538724E+02  0.88674899471E+02  0.20553099130E+03  0.17277570889E+03 0.  0.
         24    2    3    3    0    0  0.30233574288E+02 -0.19690054991E+02  0.26772518098E+02  0.89500145004E+02  0.77406336631E+02 0.  0.
         -6    2    1    2    0  502  0.20824119246E+02 -0.63989538724E+02  0.13835159576E+03  0.23118694074E+03  0.17256283641E+03 0.  0.
        -24    2    5    5    0    0  0.77745862708E+02 -0.39941186499E+02  0.11431260112E+03  0.16471610964E+03  0.80151783840E+02 0.  0.
          5    1    3    3  501    0 -0.51057693535E+02  0.83679593715E+02  0.61902381373E+02  0.11603084630E+03  0.47000000000E+01 0. -1.
        -11    1    4    4    0    0 -0.26258454878E+02 -0.52835123941E+01  0.12046356838E+02  0.29368974597E+02  0.00000000000E+00 0.  1.
         12    1    4    4    0    0  0.56492029167E+02 -0.14406542597E+02  0.14726161260E+02  0.60131170407E+02  0.00000000000E+00 0. -1.
         -5    1    5    5    0  502 -0.56921743462E+02 -0.24048352224E+02  0.24038994645E+02  0.66470831099E+02  0.47000000000E+01 0.  1.
         11    1    6    6    0    0 -0.66874427406E+00 -0.33857043698E+02  0.60777443177E+02  0.69574738418E+02  0.00000000000E+00 0. -1.
        -12    1    6    6    0    0  0.78414606982E+02 -0.60841428009E+01  0.53535157943E+02  0.95141371221E+02  0.00000000000E+00 0.  1.
</event>
<event>
12    1  0.1596842E-001  0.1725696E+03  0.7818608E-02  0.1175469E+00
         21   -1    0    0  503  502  0.00000000000E+00  0.00000000000E+00  0.74192079574E+02  0.74192079574E+02  0.00000000000E+00 0. -1.
         21   -1    0    0  501  503 -0.00000000000E+00 -0.00000000000E+00 -0.40506945119E+03  0.40506945119E+03  0.00000000000E+00 0. -1.
          6    2    1    2  501    0 -0.85774041460E+00  0.22189341481E+02 -0.13536556722E+03  0.21848361211E+03  0.17005337215E+03 0.  0.
         24    2    3    3    0    0 -0.35837399815E+02  0.34214438452E+02 -0.17597203812E+02  0.94953628108E+02  0.79066951913E+02 0.  0.
         -6    2    1    2    0  502  0.85774041460E+00 -0.22189341481E+02 -0.19551180439E+03  0.26077791864E+03  0.17113490176E+03 0.  0.
        -24    2    5    5    0    0 -0.23807161045E+02 -0.57511084346E+02 -0.19354435309E+03  0.21739654306E+03  0.76990483695E+02 0.  0.
          5    1    3    3  501    0  0.34979659400E+02 -0.12025096971E+02 -0.11776836341E+03  0.12352998401E+03  0.47000000000E+01 0. -1.
        -13    1    4    4    0    0  0.12532151329E+02 -0.13674574747E+02  0.10502552872E+02  0.21315544288E+02  0.00000000000E+00 0.  1.
         14    1    4    4    0    0 -0.48369551144E+02  0.47889013199E+02 -0.28099756684E+02  0.73638083820E+02  0.00000000000E+00 0. -1.
         -5    1    5    5    0  502  0.24664901460E+02  0.35321742865E+02 -0.19674512978E+01  0.43381375585E+02  0.47000000000E+01 0.  1.
         11    1    6    6    0    0  0.39715551982E+01  0.23486512174E+01  0.58010011825E+01  0.74122215261E+01  0.00000000000E+00 0. -1.
        -12    1    6    6    0    0 -0.27778716243E+02 -0.59859735563E+02 -0.19934535428E+03  0.20998432153E+03  0.00000000000E+00 0.  1.
</event>
<event>
12    1  0.1596842E-001  0.2210855E+03  0.7818608E-02  0.1133238E+00
         21   -1    0    0  503  502  0.00000000000E+00  0.00000000000E+00  0.18496005937E+03  0.18496005937E+03  0.00000000000E+00 0.  1.
         21   -1    0    0  501  503 -0.00000000000E+00 -0.00000000000E+00 -0.52611897034E+03  0.52611897034E+03  0.00000000000E+00 0. -1.
          6    2    1    2  501    0  0.83585407772E+02  0.11061702315E+03 -0.42207259985E+03  0.47647044834E+03  0.17220964665E+03 0.  0.
         24    2    3    3    0    0 -0.17886781079E+02  0.24652462896E+02 -0.19708044933E+03  0.21507024076E+03  0.80540822496E+02 0.  0.
         -6    2    1    2    0  502 -0.83585407772E+02 -0.11061702315E+03  0.80913688880E+02  0.23460858136E+03  0.17108920245E+03 0.  0.
        -24    2    5    5    0    0  0.10591512260E+02 -0.25189499258E+02  0.64865619059E+02  0.10636356333E+03  0.79743138030E+02 0.  0.
          5    1    3    3  501    0  0.10147218885E+03  0.85964560252E+02 -0.22499215052E+03  0.26140020759E+03  0.47000000000E+01 0. -1.
        -13    1    4    4    0    0  0.27621240225E+02  0.29333222559E+01 -0.31575686340E+02  0.42054265644E+02  0.00000000000E+00 0.  1.
         14    1    4    4    0    0 -0.45508021304E+02  0.21719140640E+02 -0.16550476299E+03  0.17301597511E+03  0.00000000000E+00 0. -1.
         -5    1    5    5    0  502 -0.94176920032E+02 -0.85427523890E+02  0.16048069821E+02  0.12824501803E+03  0.47000000000E+01 0.  1.
         13    1    6    6    0    0  0.35535992861E+02 -0.18852006380E+02  0.41770449442E+01  0.40443202614E+02  0.00000000000E+00 0. -1.
        -14    1    6    6    0    0 -0.24944480602E+02 -0.63374928775E+01  0.60688574115E+02  0.65920360713E+02  0.00000000000E+00 0.  1.
</event>
<event>
12    1  0.1596842E-001  0.2566165E+03  0.7818608E-02  0.1109401E+00
         21   -1    0    0  501  502  0.00000000000E+00  0.00000000000E+00  0.30185168966E+03  0.30185168966E+03  0.00000000000E+00 0.  1.
         21   -1    0    0  502  503 -0.00000000000E+00 -0.00000000000E+00 -0.39478260177E+03  0.39478260177E+03  0.00000000000E+00 0.  1.
         -6    2    1    2    0  503  0.97960657915E+02 -0.16169454555E+03 -0.28027106085E+03  0.38000514275E+03  0.17352413206E+03 0.  0.
        -24    2    3    3    0    0  0.45214356534E+02 -0.53010563285E+02 -0.22088900683E+03  0.24531030748E+03  0.80812967757E+02 0.  0.
          6    2    1    2  501    0 -0.97960657915E+02  0.16169454555E+03  0.18734014874E+03  0.31662914869E+03  0.17151171945E+03 0.  0.
         24    2    5    5    0    0 -0.12773030054E+03  0.90004216561E+02  0.12275811436E+03  0.21554174068E+03  0.83503884108E+02 0.  0.
          5    1    5    5  501    0  0.29769642621E+02  0.71690328987E+02  0.64582034378E+02  0.10108740800E+03  0.47000000000E+01 0. -1.
        -13    1    6    6    0    0 -0.12453471307E+03  0.51355990493E+02  0.11229395749E+03  0.17537464300E+03  0.00000000000E+00 0.  1.
         14    1    6    6    0    0 -0.31955874685E+01  0.38648226067E+02  0.10464156877E+02  0.40167097687E+02  0.00000000000E+00 0. -1.
         -5    1    3    3    0  503  0.52746301382E+02 -0.10868398226E+03 -0.59382054019E+02  0.13469483527E+03  0.47000000000E+01 0.  1.
         11    1    4    4    0    0  0.38296783319E+02 -0.50487017091E+01 -0.31569571350E+02  0.49887581989E+02  0.00000000000E+00 0. -1.
        -12    1    4    4    0    0  0.69175732147E+01 -0.47961861576E+02 -0.18931943548E+03  0.19542272549E+03  0.00000000000E+00 0.  1.
</event>
<event>
12    1  0.1596842E-001  0.1803139E+03  0.7818608E-02  0.1169131E+00
         21   -1    0    0  503  502  0.00000000000E+00  0.00000000000E+00  0.20172413605E+03  0.20172413605E+03  0.00000000000E+00 0. -1.
         21   -1    0    0  501  503 -0.00000000000E+00 -0.00000000000E+00 -0.19956265769E+03  0.19956265769E+03  0.00000000000E+00 0.  1.
          6    2    1    2  501    0 -0.52873188874E+02  0.14575894753E+01 -0.93374203382E+02  0.20305630344E+03  0.17238161688E+03 0.  0.
         24    2    3    3    0    0 -0.50597515892E+02  0.22738970983E+02  0.11211374830E+02  0.96199815302E+02  0.77791645584E+02 0.  0.
         -6    2    1    2    0  502  0.52873188874E+02 -0.14575894753E+01  0.95535681744E+02  0.19823049030E+03  0.16544050934E+03 0.  0.
        -24    2    5    5    0    0 -0.56115571348E+01  0.14071246136E+02  0.10890759639E+03  0.13608140863E+03  0.80173534792E+02 0.  0.
          5    1    3    3  501    0 -0.22756729819E+01 -0.21281381508E+02 -0.10458557821E+03  0.10685648813E+03  0.47000000000E+01 0. -1.
        -13    1    4    4    0    0 -0.23021312946E+02  0.41401854353E+02 -0.19189928398E+02  0.51111131327E+02  0.00000000000E+00 0.  1.
         14    1    4    4    0    0 -0.27576202947E+02 -0.18662883370E+02  0.30401303228E+02  0.45088683975E+02  0.00000000000E+00 0. -1.
         -5    1    5    5    0  502  0.58484746009E+02 -0.15528835612E+02 -0.13371914650E+02  0.62149081671E+02  0.47000000000E+01 0.  1.
         13    1    6    6    0    0  0.75416720065E+00  0.47461318527E+02  0.59596694115E+02  0.76189969641E+02  0.00000000000E+00 0. -1.
        -14    1    6    6    0    0 -0.63657243354E+01 -0.33390072390E+02  0.49310902279E+02  0.59891438988E+02  0.00000000000E+00 0.  1.
</event>
<event>
12    1  0.1596842E-001  0.2023993E+03  0.7818608E-02  0.1147792E+00
         21   -1    0    0  501  502  0.00000000000E+00  0.00000000000E+00  0.25197667534E+03  0.25197667534E+03  0.00000000000E+00 0. -1.
         21   -1    0    0  502  503 -0.00000000000E+00 -0.00000000000E+00 -0.18749235469E+03  0.18749235469E+03  0.00000000000E+00 0.  1.
         -6    2    1    2    0  503  0.10633441220E+03 -0.30929215229E+00 -0.48220519735E+02  0.20806419764E+03  0.17221611115E+03 0.  0.
        -24    2    3    3    0    0  0.11768461763E+03 -0.29787068186E+02 -0.80137412534E+02  0.16291395413E+03  0.73362203512E+02 0.  0.
          6    2    1    2  501    0 -0.10633441220E+03  0.30929215229E+00  0.11270484038E+03  0.23140483239E+03  0.17186829995E+03 0.  0.
         24    2    5    5    0    0 -0.10174137652E+03 -0.39471791885E+02  0.12926997312E+03  0.18781441777E+03  0.81573277001E+02 0.  0.
          5    1    5    5  501    0 -0.45930356728E+01  0.39781084037E+02 -0.16565132735E+02  0.43590414616E+02  0.47000000000E+01 0. -1.
        -13    1    6    6    0    0 -0.88070423001E+02 -0.63291398045E+02  0.10821864069E+03  0.15321055664E+03  0.00000000000E+00 0.  1.
         14    1    6    6    0    0 -0.13670953522E+02  0.23819606161E+02  0.21051332428E+02  0.34603861126E+02  0.00000000000E+00 0. -1.
         -5    1    3    3    0  503 -0.11350205437E+02  0.29477776034E+02  0.31916892799E+02  0.45150243513E+02  0.47000000000E+01 0.  1.
         11    1    4    4    0    0 -0.17022350188E+01 -0.20652774611E+02 -0.20495526955E+02  0.29146206072E+02  0.00000000000E+00 0. -1.
        -12    1    4    4    0    0  0.11938685265E+03 -0.91342935746E+01 -0.59641885579E+02  0.13376774806E+03  0.00000000000E+00 0.  1.
</event>
<event>
12    1  0.1596842E-001  0.1798553E+03  0.7818608E-02  0.1168412E+00
         21   -1    0    0  503  502  0.00000000000E+00  0.00000000000E+00  0.78137826293E+02  0.78137826293E+02  0.00000000000E+00 0. -1.
         21   -1    0    0  501  503 -0.00000000000E+00 -0.00000000000E+00 -0.45757522232E+03  0.45757522232E+03  0.00000000000E+00 0. -1.
          6    2    1    2  501    0 -0.41004385840E+02 -0.23668846124E+02 -0.27556386101E+03  0.32801697789E+03  0.17151711972E+03 0.  0.
         24    2    3    3    0    0  0.67104054442E+01 -0.29109978929E+02 -0.51115818545E+02  0.98440583201E+02  0.78646685251E+02 0.  0.
         -6    2    1    2    0  502  0.41004385840E+02  0.23668846124E+02 -0.10387353502E+03  0.20769607072E+03  0.17351188023E+03 0.  0.
        -24    2    5    5    0    0  0.85434386603E+02 -0.19112429218E+02 -0.71658932573E+02  0.13795273342E+03  0.78940703534E+02 0.  0.
          5    1    3    3  501    0 -0.47714791284E+02  0.54411328047E+01 -0.22444804247E+03  0.22957639469E+03  0.47000000000E+01 0. -1.
        -13    1    4    4    0    0  0.29092444692E+02 -0.11630556516E+02 -0.60831464808E+02  0.68425925597E+02  0.00000000000E+00 0.  1.
         14    1    4    4    0    0 -0.22382039248E+02 -0.17479422413E+02  0.97156462636E+01  0.30014657604E+02  0.00000000000E+00 0. -1.
         -5    1    5    5    0  502 -0.44430000763E+02  0.42781275342E+02 -0.32214602442E+02  0.69743337303E+02  0.47000000000E+01 0.  1.
         13    1    6    6    0    0  0.14701703730E+02 -0.20222949376E+02  0.12548404663E+02  0.27974456807E+02  0.00000000000E+00 0. -1.
        -14    1    6    6    0    0  0.70732682873E+02  0.11105201582E+01 -0.84207337237E+02  0.10997827661E+03  0.00000000000E+00 0.  1.
</event>
<event>
12    1  0.1596842E-001  0.2292244E+03  0.7818608E-02  0.1127305E+00
         21   -1    0    0  501  502  0.00000000000E+00  0.00000000000E+00  0.13716342103E+04  0.13716342103E+04  0.00000000000E+00 0.  1.
         21   -1    0    0  502  503 -0.00000000000E+00 -0.00000000000E+00 -0.76811831971E+02  0.76811831971E+02  0.00000000000E+00 0.  1.
         -6    2    1    2    0  503  0.14257657902E+03 -0.48558497925E+02  0.13437929285E+03  0.26570961379E+03  0.17279408529E+03 0.  0.
        -24    2    3    3    0    0  0.53924328579E+02  0.33134244884E+02  0.32828761350E+02  0.10801520621E+03  0.81140900932E+02 0.  0.
          6    2    1    2  501    0 -0.14257657902E+03  0.48558497925E+02  0.11604430855E+04  0.11827364285E+04  0.17190490395E+03 0.  0.
         24    2    5    5    0    0 -0.25445831486E+02 -0.30317245779E+02  0.40672056089E+03  0.41588525058E+03  0.77280665568E+02 0.  0.
          5    1    5    5  501    0 -0.11713074753E+03  0.78875743704E+02  0.75372252462E+03  0.76685117793E+03  0.47000000000E+01 0. -1.
        -13    1    6    6    0    0 -0.21598513412E+02  0.23780687441E+02  0.13101848542E+03  0.13489944550E+03  0.00000000000E+00 0.  1.
         14    1    6    6    0    0 -0.38473180738E+01 -0.54097933220E+02  0.27570207547E+03  0.28098580508E+03  0.00000000000E+00 0. -1.
         -5    1    3    3    0  503  0.88652250438E+02 -0.81692742809E+02  0.10155053150E+03  0.15769440758E+03  0.47000000000E+01 0.  1.
         13    1    4    4    0    0 -0.13200588087E+02 -0.13319501010E+02  0.16036207562E+02  0.24674371035E+02  0.00000000000E+00 0. -1.
        -14    1    4    4    0    0  0.67124916666E+02  0.46453745894E+02  0.16792553788E+02  0.83340835175E+02  0.00000000000E+00 0.  1.
</event>
<event>
12    1  0.1596842E-001  0.1831575E+03  0.7818608E-02  0.1165587E+00
         21   -1    0    0  503  502  0.00000000000E+00  0.00000000000E+00  0.20198965088E+03  0.20198965088E+03  0.00000000000E+00 0. -1.
         21   -1    0    0  501  503 -0.00000000000E+00 -0.00000000000E+00 -0.39196516562E+03  0.39196516562E+03  0.00000000000E+00 0. -1.
          6    2    1    2  501    0  0.33764167250E+02  0.40935414254E+02 -0.32157583236E+03  0.36842138554E+03  0.17177768843E+03 0.  0.
         24    2    3    3    0    0  0.76134420837E+02  0.44474535040E+02 -0.16010377982E+03  0.20137924261E+03  0.84533689969E+02 0.  0.
         -6    2    1    2    0  502 -0.33764167250E+02 -0.40935414254E+02  0.13160031761E+03  0.22553343096E+03  0.17530247503E+03 0.  0.
        -24    2    5    5    0    0 -0.39881015915E+02 -0.56414154835E+02  0.16116347831E+03  0.19128320880E+03  0.76436554961E+02 0.  0.
          5    1    3    3  501    0 -0.42370253586E+02 -0.35391207861E+01 -0.16147205254E+03  0.16704214293E+03  0.47000000000E+01 0. -1.
        -13    1    4    4    0    0  0.18496856877E+01  0.12606043273E+02  0.78648856721E+01  0.14972978688E+02  0.00000000000E+00 0.  1.
         14    1    4    4    0    0  0.74284735149E+02  0.31868491766E+02 -0.16796866549E+03  0.18640626393E+03  0.00000000000E+00 0. -1.
         -5    1    5    5    0  502  0.61168486646E+01  0.15478740581E+02 -0.29563160691E+02  0.34250222154E+02  0.47000000000E+01 0.  1.
         13    1    6    6    0    0 -0.48403597494E+02 -0.28810563300E+02  0.15014566674E+03  0.16036420439E+03  0.00000000000E+00 0. -1.
        -14    1    6    6    0    0  0.85225815786E+01 -0.27603591535E+02  0.11017811566E+02  0.30919004416E+02  0.00000000000E+00 0.  1.
</event>
<event>
12    1  0.1596842E-001  0.1799320E+03  0.7818608E-02  0.1168288E+00
         21   -1    0    0  503  502  0.00000000000E+00  0.00000000000E+00  0.13803424167E+03  0.13803424167E+03  0.00000000000E+00 0. -1.
         21   -1    0    0  501  503 -0.00000000000E+00 -0.00000000000E+00 -0.24574019698E+03  0.24574019698E+03  0.00000000000E+00 0. -1.
          6    2    1    2  501    0 -0.63772340514E+01  0.52361141364E+02 -0.98958933050E+02  0.20534943493E+03  0.17202663095E+03 0.  0.
         24    2    3    3    0    0 -0.38606163479E+02  0.85995038327E+02 -0.40306368824E+02  0.13030174204E+03  0.80426103572E+02 0.  0.
         -6    2    1    2    0  502  0.63772340514E+01 -0.52361141364E+02 -0.87470222566E+01  0.17842500373E+03  0.17022518415E+03 0.  0.
        -24    2    5    5    0    0 -0.22501245446E+02 -0.32445997521E+02 -0.66237018316E+02  0.11091375149E+03  0.79721194621E+02 0.  0.
          5    1    3    3  501    0  0.32228929427E+02 -0.33633896963E+02 -0.58652564227E+02  0.75047692885E+02  0.47000000000E+01 0. -1.
        -13    1    4    4    0    0  0.13552265937E+02  0.34225298717E+02 -0.43199614602E+02  0.56755983703E+02  0.00000000000E+00 0.  1.
         14    1    4    4    0    0 -0.52158429416E+02  0.51769739610E+02  0.28932457787E+01  0.73545758338E+02  0.00000000000E+00 0. -1.
         -5    1    5    5    0  502  0.28878479497E+02 -0.19915143843E+02  0.57489996060E+02  0.67511252242E+02  0.47000000000E+01 0.  1.
         11    1    6    6    0    0 -0.22140873228E+02 -0.37649264957E+02 -0.82764774888E+02  0.93582548487E+02  0.00000000000E+00 0. -1.
        -12    1    6    6    0    0 -0.36037221800E+00  0.52032674360E+01  0.16527756572E+02  0.17331203000E+02  0.00000000000E+00 0.  1.
</event>
<event>
12    1  0.1596842E-001  0.1829909E+03  0.7818608E-02  0.1165150E+00
         21   -1    0    0  503  502  0.00000000000E+00  0.00000000000E+00  0.83987714956E+03  0.83987714956E+03  0.00000000000E+00 0.  1.
         21   -1    0    0  501  503 -0.00000000000E+00 -0.00000000000E+00 -0.64885330789E+02  0.64885330789E+02  0.00000000000E+00 0.  1.
          6    2    1    2  501    0  0.20163394054E+02 -0.56001091411E+02  0.10610071162E+03  0.21152544912E+03  0.17304037078E+03 0.  0.
         24    2    3    3    0    0 -0.26198369124E+02 -0.64243331923E+02  0.11573455147E+02  0.10581433414E+03  0.79051680595E+02 0.  0.
         -6    2    1    2    0  502 -0.20163394054E+02  0.56001091411E+02  0.66889110715E+03  0.69323703123E+03  0.17210340944E+03 0.  0.
        -24    2    5    5    0    0 -0.21829004228E+02  0.98955191396E+02  0.57935997673E+03  0.59380996108E+03  0.81753604914E+02 0.  0.
          5    1    3    3  501    0  0.46361763178E+02  0.82422405119E+01  0.94527256469E+02  0.10571111497E+03  0.47000000000E+01 0. -1.
        -11    1    4    4    0    0 -0.14640400820E+02  0.17154683184E+01 -0.25365789885E+02  0.29337816282E+02  0.00000000000E+00 0.  1.
         12    1    4    4    0    0 -0.11557968304E+02 -0.65958800242E+02  0.36939245032E+02  0.76476517861E+02  0.00000000000E+00 0. -1.
         -5    1    5    5    0  502  0.16656101741E+01 -0.42954099985E+02  0.89531130424E+02  0.99427070145E+02  0.47000000000E+01 0.  1.
         13    1    6    6    0    0 -0.36820795441E+02  0.16122745202E+02  0.27886854288E+03  0.28175056007E+03  0.00000000000E+00 0. -1.
        -14    1    6    6    0    0  0.14991791213E+02  0.82832446194E+02  0.30049143385E+03  0.31205940102E+03  0.00000000000E+00 0.  1.
</event>
<event>
12    1  0.1596842E-001  0.1840117E+03  0.7818608E-02  0.1164222E+00
         21   -1    0    0  501  502  0.00000000000E+00  0.00000000000E+00  0.34964022896E+02  0.34964022896E+02  0.00000000000E+00 0. -1.
         21   -1    0    0  502  503 -0.00000000000E+00 -0.00000000000E+00 -0.98532169324E+03  0.98532169324E+03  0.00000000000E+00 0. -1.
         -6    2    1    2    0  503 -0.58718767936E+02 -0.19446818157E+02 -0.55073516567E+03  0.58033293975E+03  0.17219473223E+03 0.  0.
        -24    2    3    3    0    0 -0.11182133812E+01 -0.14016332427E+01 -0.48615075245E+03  0.49180786412E+03  0.74358631852E+02 0.  0.
          6    2    1    2  501    0  0.58718767936E+02  0.19446818157E+02 -0.39962250468E+03  0.43995277639E+03  0.17330385675E+03 0.  0.
         24    2    5    5    0    0  0.55015738658E+02 -0.49351043105E+02 -0.29693645046E+03  0.31620555876E+03  0.79702213423E+02 0.  0.
          5    1    5    5  501    0  0.37030292781E+01  0.68797861262E+02 -0.10268605422E+03  0.12374721763E+03  0.47000000000E+01 0. -1.
        -11    1    6    6    0    0  0.51433735204E+02  0.34287020301E+01 -0.19044843404E+03  0.19730127000E+03  0.00000000000E+00 0.  1.
         12    1    6    6    0    0  0.35820034537E+01 -0.52779745135E+02 -0.10648801642E+03  0.11890428876E+03  0.00000000000E+00 0. -1.
         -5    1    3    3    0  503 -0.57600554555E+02 -0.18045184914E+02 -0.64584413224E+02  0.88525075629E+02  0.47000000000E+01 0.  1.
         11    1    4    4    0    0 -0.15106283087E+02 -0.62294733246E+01 -0.46845660638E+03  0.46874150466E+03  0.00000000000E+00 0. -1.
        -12    1    4    4    0    0  0.13988069706E+02  0.48278400819E+01 -0.17694146066E+02  0.23066359465E+02  0.00000000000E+00 0.  1.
</event>
<event>
12    1  0.1596842E-001  0.2456200E+03  0.7818608E-02  0.1116278E+00
         21   -1    0    0  503  502  0.00000000000E+00  0.00000000000E+00  0.46853919041E+02  0.46853919041E+02  0.00000000000E+00 0.  1.
         21   -1    0    0  501  503 -0.00000000000E+00 -0.00000000000E+00 -0.15704645185E+04  0.15704645185E+04  0.00000000000E+00 0. -1.
          6    2    1    2  501    0  0.17248191548E+03 -0.95574839127E+00 -0.11070275263E+04  0.11337167059E+04  0.17335714754E+03 0.  0.
         24    2    3    3    0    0  0.14745053081E+03 -0.36313663848E+02 -0.57507801369E+03  0.59998538174E+03  0.78787024709E+02 0.  0.
         -6    2    1    2    0  502 -0.17248191548E+03  0.95574839127E+00 -0.41658307314E+03  0.48360173164E+03  0.17486638725E+03 0.  0.
        -24    2    5    5    0    0 -0.74494427444E+02  0.64801741591E+02 -0.22540484047E+03  0.25943869877E+03  0.82173054436E+02 0.  0.
          5    1    3    3  501    0  0.25031384669E+02  0.35357915457E+02 -0.53194951258E+03  0.53373132411E+03  0.47000000000E+01 0. -1.
        -11    1    4    4    0    0  0.10148257197E+03  0.14206529330E+02 -0.32738778985E+03  0.34305000048E+03  0.00000000000E+00 0.  1.
         12    1    4    4    0    0  0.45967958836E+02 -0.50520193178E+02 -0.24769022384E+03  0.25693538126E+03  0.00000000000E+00 0. -1.
         -5    1    5    5    0  502 -0.97987488035E+02 -0.63845993199E+02 -0.19117823267E+03  0.22416303287E+03  0.47000000000E+01 0.  1.
         11    1    6    6    0    0 -0.71266718025E+02  0.32197079244E+02 -0.20826288172E+03  0.22246128857E+03  0.00000000000E+00 0. -1.
        -12    1    6    6    0    0 -0.32277094190E+01  0.32604662347E+02 -0.17141958751E+02  0.36977410194E+02  0.00000000000E+00 0.  1.
</event>
<event>
12    1  0.1596842E-001  0.2360817E+03  0.7818608E-02  0.1124646E+00
         21   -1    0    0  501  502  0.00000000000E+00  0.00000000000E+00  0.39219372703E+03  0.39219372703E+03  0.00000000000E+00 0. -1.
         21   -1    0    0  502  503 -0.00000000000E+00 -0.00000000000E+00 -0.32708972536E+03  0.32708972536E+03  0.00000000000E+00 0.  1.
         -6    2    1    2    0  503  0.45506187020E+02 -0.13343815670E+03 -0.24292927810E+03  0.33874648655E+03  0.18936206926E+03 0.  0.
        -24    2    3    3    0    0  0.78407834406E+02 -0.15747313965E+02 -0.10644403601E+03  0.15548720529E+03  0.80312961666E+02 0.  0.
          6    2    1    2  501    0 -0.45506187020E+02  0.13343815670E+03  0.30803327977E+03  0.38053696583E+03  0.17334164589E+03 0.  0.
         24    2    5    5    0    0 -0.84316326647E+02  0.49607581981E+02  0.21548507544E+03  0.24968952673E+03  0.79629685995E+02 0.  0.
          5    1    5    5  501    0  0.38810139627E+02  0.83830574715E+02  0.92548204329E+02  0.13084743910E+03  0.47000000000E+01 0. -1.
        -13    1    6    6    0    0  0.51587016895E+01 -0.82717437625E+01  0.62457403495E+02  0.63213615616E+02  0.00000000000E+00 0.  1.
         14    1    6    6    0    0 -0.89475028336E+02  0.57879325744E+02  0.15302767194E+03  0.18647591111E+03  0.00000000000E+00 0. -1.
         -5    1    3    3    0  503 -0.32901647386E+02 -0.11769084273E+03 -0.13648524209E+03  0.18325928127E+03  0.47000000000E+01 0.  1.
         11    1    4    4    0    0  0.44125531707E-01  0.17481220558E+02 -0.50979119373E+02  0.53893094468E+02  0.00000000000E+00 0. -1.
        -12    1    4    4    0    0  0.78363708874E+02 -0.33228534524E+02 -0.55464916640E+02  0.10159411082E+03  0.00000000000E+00 0.  1.
</event>
<event>
12    1  0.1596842E-001  0.1802992E+03  0.7818608E-02  0.1167777E+00
         21   -1    0    0  503  502  0.00000000000E+00  0.00000000000E+00  0.30145609181E+03  0.30145609181E+03  0.00000000000E+00 0.  1.
         21   -1    0    0  501  503 -0.00000000000E+00 -0.00000000000E+00 -0.16706044869E+04  0.16706044869E+04  0.00000000000E+00 0.  1.
          6    2    1    2  501    0  0.29676507594E+02 -0.41388282465E+02 -0.16385804595E+04  0.16484701213E+04  0.17295702860E+03 0.  0.
         24    2    3    3    0    0  0.69174197648E+02 -0.23925450842E+02 -0.14766075073E+04  0.14807729382E+04  0.83434207403E+02 0.  0.
         -6    2    1    2    0  502 -0.29676507594E+02  0.41388282465E+02  0.26943206439E+03  0.32359045738E+03  0.17182392662E+03 0.  0.
        -24    2    5    5    0    0 -0.17891677338E+02 -0.32023223883E+00  0.46216364680E+02  0.96157344097E+02  0.82401867654E+02 0.  0.
          5    1    3    3  501    0 -0.39497690054E+02 -0.17462831623E+02 -0.16197295215E+03  0.16769718315E+03  0.47000000000E+01 0. -1.
        -11    1    4    4    0    0  0.34060627901E+02 -0.49952506598E+02 -0.10955371036E+04  0.10972041399E+04  0.00000000000E+00 0.  1.
         12    1    4    4    0    0  0.35113569747E+02  0.26027055757E+02 -0.38107040370E+03  0.38356879825E+03  0.00000000000E+00 0. -1.
         -5    1    5    5    0  502 -0.11784830256E+02  0.41708514704E+02  0.22321569971E+03  0.22743311328E+03  0.47000000000E+01 0.  1.
         13    1    6    6    0    0  0.27229066903E+02 -0.21186906476E+02  0.21354175268E+02  0.40574719861E+02  0.00000000000E+00 0. -1.
        -14    1    6    6    0    0 -0.45120744241E+02  0.20866674237E+02  0.24862189412E+02  0.55582624235E+02  0.00000000000E+00 0.  1.
</event>
<event>
12    1  0.1596842E-001  0.3179612E+03  0.7818608E-02  0.1077127E+00
         21   -1    0    0  503  502  0.00000000000E+00  0.00000000000E+00  0.90115194891E+03  0.90115194891E+03  0.00000000000E+00 0. -1.
         21   -1    0    0  501  503 -0.00000000000E+00 -0.00000000000E+00 -0.13842990166E+03  0.13842990166E+03  0.00000000000E+00 0.  1.
          6    2    1    2  501    0 -0.12051360195E+03  0.23309470947E+03  0.14599651054E+03  0.34571606516E+03  0.17131241864E+03 0.  0.
         24    2    3    3    0    0 -0.83705174400E+02  0.17919702857E+03  0.30522920258E+02  0.21299055745E+03  0.72905401929E+02 0.  0.
         -6    2    1    2    0  502  0.12051360195E+03 -0.23309470947E+03  0.61672553672E+03  0.69386578541E+03  0.17956243672E+03 0.  0.
        -24    2    5    5    0    0  0.48556312323E+02 -0.18201575045E+03  0.28809945629E+03  0.35356576731E+03  0.80746555447E+02 0.  0.
          5    1    3    3  501    0 -0.36808427545E+02  0.53897680900E+02  0.11547359028E+03  0.13272550771E+03  0.47000000000E+01 0. -1.
        -11    1    4    4    0    0 -0.56283762370E+02  0.14588258290E+03  0.52011892247E+02  0.16478721685E+03  0.00000000000E+00 0.  1.
         12    1    4    4    0    0 -0.27421412030E+02  0.33314445669E+02 -0.21488971989E+02  0.48203340601E+02  0.00000000000E+00 0. -1.
         -5    1    5    5    0  502  0.71957289623E+02 -0.51078959028E+02  0.32862608043E+03  0.34030001810E+03  0.47000000000E+01 0.  1.
         13    1    6    6    0    0  0.62796385163E+02 -0.17774415774E+03  0.25351499950E+03  0.31592123476E+03  0.00000000000E+00 0. -1.
        -14    1    6    6    0    0 -0.14240072840E+02 -0.42715927025E+01  0.34584456797E+02  0.37644532547E+02  0.00000000000E+00 0.  1.
</event>
<event>
12    1  0.1596842E-001  0.1886419E+03  0.7818608E-02  0.1161328E+00
         21   -1    0    0  501  502  0.00000000000E+00  0.00000000000E+00  0.83674510246E+03  0.83674510246E+03  0.00000000000E+00 0. -1.
         21   -1    0    0  502  503 -0.00000000000E+00 -0.00000000000E+00 -0.67601757119E+02  0.67601757119E+02  0.00000000000E+00 0. -1.
         -6    2    1    2    0  503  0.22692511674E+02  0.57555499304E+02  0.96284917238E+02  0.20554485404E+03  0.17073463664E+03 0.  0.
        -24    2    3    3    0    0  0.53640530195E+02 -0.61737996998E+01  0.93642836596E+02  0.13449364721E+03  0.80025858394E+02 0.  0.
          6    2    1    2  501    0 -0.22692511674E+02 -0.57555499304E+02  0.67285842810E+03  0.69880200554E+03  0.17820828570E+03 0.  0.
         24    2    5    5    0    0 -0.20905602068E+02  0.24066152256E+02  0.50180532670E+03  0.50920627629E+03  0.80412822540E+02 0.  0.
          5    1    5    5  501    0 -0.17869096067E+01 -0.81621651560E+02  0.17105310140E+03  0.18959572924E+03  0.47000000000E+01 0. -1.
        -13    1    6    6    0    0 -0.30362449143E+02  0.14878290612E+02  0.75827078808E+02  0.83024018995E+02  0.00000000000E+00 0.  1.
         14    1    6    6    0    0  0.94568470753E+01  0.91878616439E+01  0.42597824789E+03  0.42618225730E+03  0.00000000000E+00 0. -1.
         -5    1    3    3    0  503 -0.30948018520E+02  0.63729299004E+02  0.26420806417E+01  0.71051206830E+02  0.47000000000E+01 0.  1.
         11    1    4    4    0    0 -0.84409204428E+01  0.14742807621E+02 -0.34811972259E+01  0.17341229731E+02  0.00000000000E+00 0. -1.
        -12    1    4    4    0    0  0.62081450637E+02 -0.20916607321E+02  0.97124033822E+02  0.11715241748E+03  0.00000000000E+00 0.  1.
</event>
<event>
12    1  0.1596842E-001  0.1740874E+03  0.7818608E-02  0.1175160E+00
         21   -1    0    0  503  502  0.00000000000E+00  0.00000000000E+00  0.43299982713E+02  0.43299982713E+02  0.00000000000E+00 0. -1.
         21   -1    0    0  501  503 -0.00000000000E+00 -0.00000000000E+00 -0.67880653347E+03  0.67880653347E+03  0.00000000000E+00 0. -1.
          6    2    1    2  501    0  0.72242633969E+01 -0.14238856312E+02 -0.33316240367E+03  0.37322486083E+03  0.16746544273E+03 0.  0.
         24    2    3    3    0    0  0.17885978254E+02  0.54035856933E+02 -0.21480549762E+03  0.23609151025E+03  0.79737176704E+02 0.  0.
         -6    2    1    2    0  502 -0.72242633969E+01  0.14238856312E+02 -0.30234414709E+03  0.34888165536E+03  0.17335365919E+03 0.  0.
        -24    2    5    5    0    0 -0.57545750830E+02 -0.24399251509E+02 -0.14530999537E+03  0.17945034102E+03  0.84738381054E+02 0.  0.
          5    1    3    3  501    0 -0.10661714857E+02 -0.68274713245E+02 -0.11835690605E+03  0.13713335058E+03  0.47000000000E+01 0. -1.
        -11    1    4    4    0    0 -0.24488747171E+02  0.22069491808E+02 -0.14327154440E+03  0.14701529391E+03  0.00000000000E+00 0.  1.
         12    1    4    4    0    0  0.42374725425E+02  0.31966365125E+02 -0.71533953219E+02  0.89076216340E+02  0.00000000000E+00 0. -1.
         -5    1    5    5    0  502  0.50321487433E+02  0.38638107821E+02 -0.15703415171E+03  0.16943131434E+03  0.47000000000E+01 0.  1.
         11    1    6    6    0    0 -0.55472394843E+02 -0.40329011489E+02 -0.14804110785E+03  0.16315570897E+03  0.00000000000E+00 0. -1.
        -12    1    6    6    0    0 -0.20733559870E+01  0.15929759980E+02  0.27311124781E+01  0.16294632044E+02  0.00000000000E+00 0.  1.
</event>
<event>
12    1  0.1596842E-001  0.1814500E+03  0.7818608E-02  0.1166417E+00
         21   -1    0    0  501  502  0.00000000000E+00  0.00000000000E+00  0.82688299525E+02  0.82688299525E+02  0.00000000000E+00 0.  1.
         21   -1    0    0  502  503 -0.00000000000E+00 -0.00000000000E+00 -0.40357800388E+03  0.40357800388E+03  0.00000000000E+00 0.  1.
         -6    2    1    2    0  503 -0.52315635700E+02  0.18810573635E+02 -0.18879825973E+03  0.26182864298E+03  0.17268089642E+03 0.  0.
        -24    2    3    3    0    0 -0.16581933849E+02  0.36515731519E+02 -0.26941661424E+02  0.95065282255E+02  0.81873045573E+02 0.  0.
          6    2    1    2  501    0  0.52315635700E+02 -0.18810573635E+02 -0.13209144462E+03  0.22443766042E+03  0.17272333443E+03 0.  0.
         24    2    5    5    0    0  0.98703864134E+02 -0.31456792033E+02 -0.80920266350E+02  0.15406455432E+03  0.80348085430E+02 0.  0.
          5    1    5    5  501    0 -0.46388228434E+02  0.12646218398E+02 -0.51171178268E+02  0.70373106101E+02  0.47000000000E+01 0. -1.
        -11    1    6    6    0    0  0.80545700988E+02 -0.33618403503E+01 -0.88553702177E+02  0.11975253687E+03  0.00000000000E+00 0.  1.
         12    1    6    6    0    0  0.18158163146E+02 -0.28094951683E+02  0.76334358272E+01  0.34312017449E+02  0.00000000000E+00 0. -1.
         -5    1    3    3    0  503 -0.35733701851E+02 -0.17705157884E+02 -0.16185659831E+03  0.16676336072E+03  0.47000000000E+01 0.  1.
         11    1    4    4    0    0  0.17809144529E+02 -0.17514010743E+02 -0.17090996595E+02  0.30265630107E+02  0.00000000000E+00 0. -1.
        -12    1    4    4    0    0 -0.34391078378E+02  0.54029742262E+02 -0.98506648282E+01  0.64799652148E+02  0.00000000000E+00 0.  1.
</event>
<event>
12    1  0.1596842E-001  0.1828941E+03  0.7818608E-02  0.1166072E+00
         21   -1    0    0  503  502  0.00000000000E+00  0.00000000000E+00  0.35692493410E+02  0.35692493410E+02  0.00000000000E+00 0. -1.
         21   -1    0    0  501  503 -0.00000000000E+00 -0.00000000000E+00 -0.11017974929E+04  0.11017974929E+04  0.00000000000E+00 0. -1.
          6    2    1    2  501    0 -0.24251129061E+02 -0.43423707826E+02 -0.77246543670E+03  0.79382183884E+03  0.17600149221E+03 0.  0.
         24    2    3    3    0    0  0.36614186480E+02 -0.51176612301E+02 -0.63771283869E+03  0.64568323201E+03  0.79180345842E+02 0.  0.
         -6    2    1    2    0  502  0.24251129061E+02  0.43423707826E+02 -0.29363956281E+03  0.34366814749E+03  0.17149305260E+03 0.  0.
        -24    2    5    5    0    0  0.67767230548E+02  0.55309415505E+02 -0.13990818034E+03  0.18338605525E+03  0.80028853271E+02 0.  0.
          5    1    3    3  501    0 -0.60865315540E+02  0.77529044752E+01 -0.13475259801E+03  0.14813860683E+03  0.47000000000E+01 0. -1.
        -13    1    4    4    0    0 -0.13992618765E+02 -0.89945153202E+01 -0.29129693307E+02  0.33544503542E+02  0.00000000000E+00 0.  1.
         14    1    4    4    0    0  0.50606805245E+02 -0.42182096981E+02 -0.60858314538E+03  0.61213872846E+03  0.00000000000E+00 0. -1.
         -5    1    5    5    0  502 -0.43516101487E+02 -0.11885707680E+02 -0.15373138247E+03  0.16028209224E+03  0.47000000000E+01 0.  1.
         11    1    6    6    0    0  0.17118209211E+02  0.16333432368E+02  0.57281872071E+01  0.24343915630E+02  0.00000000000E+00 0. -1.
        -12    1    6    6    0    0  0.50649021337E+02  0.38975983137E+02 -0.14563636755E+03  0.15904213962E+03  0.00000000000E+00 0.  1.
</event>
<event>
12    1  0.1596842E-001  0.2979242E+03  0.7818608E-02  0.1086319E+00
         21   -1    0    0  503  502  0.00000000000E+00  0.00000000000E+00  0.10792547663E+03  0.10792547663E+03  0.00000000000E+00 0. -1.
         21   -1    0    0  501  503 -0.00000000000E+00 -0.00000000000E+00 -0.13888017655E+04  0.13888017655E+04  0.00000000000E+00 0. -1.
          6    2    1    2  501    0  0.23664397908E+03 -0.55544122886E+02 -0.11185031046E+04  0.11574281387E+04  0.17177071603E+03 0.  0.
         24    2    3    3    0    0  0.12887064207E+03  0.10616785566E+02 -0.39927714120E+03  0.42715392009E+03  0.79485076811E+02 0.  0.
         -6    2    1    2    0  502 -0.23664397908E+03  0.55544122886E+02 -0.16237318421E+03  0.33929910335E+03  0.17225942111E+03 0.  0.
        -24    2    5    5    0    0 -0.22699605342E+03  0.48004606545E+01 -0.16633202828E+03  0.28728214292E+03  0.57571115288E+02 0.  0.
          5    1    3    3  501    0  0.10777333700E+03 -0.66160908452E+02 -0.71922596342E+03  0.73027421865E+03  0.47000000000E+01 0. -1.
        -13    1    4    4    0    0  0.56867167118E+02 -0.23261096748E+02 -0.99035641655E+02  0.11654617813E+03  0.00000000000E+00 0.  1.
         14    1    4    4    0    0  0.72003474957E+02  0.33877882314E+02 -0.30024149955E+03  0.31060774196E+03  0.00000000000E+00 0. -1.
         -5    1    5    5    0  502 -0.96479256551E+01  0.50743662231E+02  0.39588440690E+01  0.52016960431E+02  0.47000000000E+01 0.  1.
         13    1    6    6    0    0 -0.80115096025E+02  0.16373590995E+02 -0.89084021329E+02  0.12092347146E+03  0.00000000000E+00 0. -1.
        -14    1    6    6    0    0 -0.14688095740E+03 -0.11573130340E+02 -0.77248006949E+02  0.16635867146E+03  0.00000000000E+00 0.  1.
</event>
<event>
12    1  0.1596842E-001  0.2300366E+03  0.7818608E-02  0.1126929E+00
         21   -1    0    0  501  502  0.00000000000E+00  0.00000000000E+00  0.15675836824E+04  0.15675836824E+04  0.00000000000E+00 0. -1.
         21   -1    0    0  502  503 -0.00000000000E+00 -0.00000000000E+00 -0.33597554012E+02  0.33597554012E+02  0.00000000000E+00 0.  1.
         -6    2    1    2    0  503 -0.89980262642E+02 -0.12430934642E+03  0.80812934423E+03  0.83974516384E+03  0.16896639284E+03 0.  0.
        -24    2    3    3    0    0 -0.86286659916E+02 -0.15617124586E+03  0.68806574474E+03  0.71538206136E+03  0.80636089384E+02 0.  0.
          6    2    1    2  501    0  0.89980262642E+02  0.12430934642E+03  0.72585678414E+03  0.76143607255E+03  0.17136965961E+03 0.  0.
         24    2    5    5    0    0  0.10435943425E+03  0.58812266355E+02  0.31999065712E+03  0.35004084758E+03  0.76057873607E+02 0.  0.
          5    1    5    5  501    0 -0.14379171611E+02  0.65497080067E+02  0.40586612702E+03  0.41139522498E+03  0.47000000000E+01 0. -1.
        -13    1    6    6    0    0  0.37850293566E+02 -0.38452583535E+01  0.38649322746E+02  0.54232839531E+02  0.00000000000E+00 0.  1.
         14    1    6    6    0    0  0.66509140686E+02  0.62657524709E+02  0.28134133437E+03  0.29580800805E+03  0.00000000000E+00 0. -1.
         -5    1    3    3    0  503 -0.36936027260E+01  0.31861899435E+02  0.12006359949E+03  0.12436310248E+03  0.47000000000E+01 0.  1.
         11    1    4    4    0    0 -0.77625050287E+02 -0.10471826969E+03  0.59075710278E+03  0.60496737013E+03  0.00000000000E+00 0. -1.
        -12    1    4    4    0    0 -0.86616096293E+01 -0.51452976166E+02  0.97308641962E+02  0.11041469122E+03  0.00000000000E+00 0.  1.
</event>
<event>
12    1  0.1596842E-001  0.1892982E+03  0.7818608E-02  0.1159556E+00
         21   -1    0    0  503  502  0.00000000000E+00  0.00000000000E+00  0.14406758210E+04  0.14406758210E+04  0.00000000000E+00 0. -1.
         21   -1    0    0  501  503 -0.00000000000E+00 -0.00000000000E+00 -0.55816044940E+02  0.55816044940E+02  0.00000000000E+00 0. -1.
          6    2    1    2  501    0  0.81308264713E+02  0.10784525581E+02  0.13457517959E+03  0.23225908650E+03  0.17060616753E+03 0.  0.
         24    2    3    3    0    0  0.35476655421E+02  0.24963595239E+01  0.15720210572E+03  0.18026583797E+03  0.80736889996E+02 0.  0.
         -6    2    1    2    0  502 -0.81308264713E+02 -0.10784525581E+02  0.12502845965E+04  0.12642327795E+04  0.16836154114E+03 0.  0.
        -24    2    5    5    0    0 -0.50287439861E+02  0.15293404983E+01  0.32949171421E+03  0.34282323700E+03  0.80198607254E+02 0.  0.
          5    1    3    3  501    0  0.45831609291E+02  0.82881660569E+01 -0.22626926128E+02  0.51993248531E+02  0.47000000000E+01 0. -1.
        -11    1    4    4    0    0 -0.10165861772E+02 -0.30041722304E+02  0.48246690551E+02  0.57737275427E+02  0.00000000000E+00 0.  1.
         12    1    4    4    0    0  0.45642517193E+02  0.32538081828E+02  0.10895541516E+03  0.12252856254E+03  0.00000000000E+00 0. -1.
         -5    1    5    5    0  502 -0.31020824852E+02 -0.12313866079E+02  0.92079288227E+03  0.92140954245E+03  0.47000000000E+01 0.  1.
         13    1    6    6    0    0  0.78715185207E+01 -0.18731605613E+02  0.17998718348E+03  0.18113039521E+03  0.00000000000E+00 0. -1.
        -14    1    6    6    0    0 -0.58158958382E+02  0.20260946111E+02  0.14950453073E+03  0.16169284179E+03  0.00000000000E+00 0.  1.
</event>
<event>
12    1  0.1596842E-001  0.3263702E+03  0.7818608E-02  0.1072800E+00
         21   -1    0    0  503  502  0.00000000000E+00  0.00000000000E+00  0.20877577467E+03  0.20877577467E+03  0.00000000000E+00 0. -1.
         21   -1    0    0  501  503 -0.00000000000E+00 -0.00000000000E+00 -0.77706549846E+03  0.77706549846E+03  0.00000000000E+00 0. -1.
          6    2    1    2  501    0  0.26867163154E+03 -0.68978478144E+02 -0.57323442587E+03  0.65943366420E+03  0.17120915407E+03 0.  0.
         24    2    3    3    0    0  0.74167554345E+02  0.80512292248E+01 -0.26719785939E+03  0.28869671988E+03  0.79909020737E+02 0.  0.
         -6    2    1    2    0  502 -0.26867163154E+03  0.68978478144E+02  0.49447020797E+01  0.32640760894E+03  0.17197383827E+03 0.  0.
        -24    2    5    5    0    0 -0.14448234740E+03  0.16498987734E+02 -0.58150049896E+02  0.17747771625E+03  0.83483807744E+02 0.  0.
          5    1    3    3  501    0  0.19450407720E+03 -0.77029707369E+02 -0.30603656647E+03  0.37073694432E+03  0.47000000000E+01 0. -1.
        -13    1    4    4    0    0  0.44066327024E+02 -0.19626650126E+02 -0.57529134766E+02  0.75077612638E+02  0.00000000000E+00 0.  1.
         14    1    4    4    0    0  0.30101227321E+02  0.27677879350E+02 -0.20966872463E+03  0.21361910724E+03  0.00000000000E+00 0. -1.
         -5    1    5    5    0  502 -0.12418928414E+03  0.52479490409E+02  0.63094751975E+02  0.14892989269E+03  0.47000000000E+01 0.  1.
         11    1    6    6    0    0 -0.30195497019E+02 -0.10958772383E+02  0.18581559210E+02  0.37109797561E+02  0.00000000000E+00 0. -1.
        -12    1    6    6    0    0 -0.11428685038E+03  0.27457760118E+02 -0.76731609105E+02  0.14036791869E+03  0.00000000000E+00 0.  1.
</event>
<event>
12    1  0.1596842E-001  0.1917973E+03  0.7818608E-02  0.1157229E+00
         21   -1    0    0  501  502  0.00000000000E+00  0.00000000000E+00  0.58524588671E+03  0.58524588671E+03  0.00000000000E+00 0.  1.
         21   -1    0    0  502  503 -0.00000000000E+00 -0.00000000000E+00 -0.27492196572E+03  0.27492196572E+03  0.00000000000E+00 0. -1.
         -6    2    1    2    0  503 -0.75100189354E+02 -0.35744718432E+02 -0.22321844164E+03  0.29319902859E+03  0.17094289790E+03 0.  0.
        -24    2    3    3    0    0 -0.10753560321E+03 -0.18939126918E+02 -0.10957321646E+03  0.17373434266E+03  0.79086886187E+02 0.  0.
          6    2    1    2  501    0  0.75100189354E+02  0.35744718432E+02  0.53354236264E+03  0.56696882384E+03  0.17282497255E+03 0.  0.
         24    2    5    5    0    0  0.37900669745E+02  0.27394194992E+02  0.51842500432E+03  0.52568735071E+03  0.73456129155E+02 0.  0.
          5    1    5    5  501    0  0.37199519609E+02  0.83505234399E+01  0.15117358320E+02  0.41281473125E+02  0.47000000000E+01 0. -1.
        -13    1    6    6    0    0  0.51028009177E+02  0.13492967291E+01  0.22018422102E+03  0.22602382509E+03  0.00000000000E+00 0.  1.
         14    1    6    6    0    0 -0.13127339432E+02  0.26044898263E+02  0.29824078330E+03  0.29966352562E+03  0.00000000000E+00 0. -1.
         -5    1    3    3    0  503  0.32435413861E+02 -0.16805591514E+02 -0.11364522518E+03  0.11946468593E+03  0.47000000000E+01 0.  1.
         13    1    4    4    0    0 -0.11519873431E+03 -0.21732154337E+02 -0.11477380238E+03  0.16406114907E+03  0.00000000000E+00 0. -1.
        -14    1    4    4    0    0  0.76631310976E+01  0.27930274190E+01  0.52005859221E+01  0.96731935945E+01  0.00000000000E+00 0.  1.
</event>
<event>
12    1  0.1596842E-001  0.1981972E+03  0.7818608E-02  0.1152999E+00
         21   -1    0    0  503  502  0.00000000000E+00  0.00000000000E+00  0.15775739553E+04  0.15775739553E+04  0.00000000000E+00 0. -1.
         21   -1    0    0  501  503 -0.00000000000E+00 -0.00000000000E+00 -0.25602252939E+02  0.25602252939E+02  0.00000000000E+00 0. -1.
          6    2    1    2  501    0  0.83466119450E+02 -0.42047750653E+02  0.58497504376E+03  0.61763900871E+03  0.17477853654E+03 0.  0.
         24    2    3    3    0    0  0.42766751149E+02 -0.62185719945E+02  0.54669814531E+03  0.55806395234E+03  0.82827857903E+02 0.  0.
         -6    2    1    2    0  502 -0.83466119450E+02  0.42047750653E+02  0.96699665858E+03  0.98553719950E+03  0.16572998360E+03 0.  0.
        -24    2    5    5    0    0 -0.64730062488E+02 -0.18993991690E+02  0.77279326383E+03  0.78105203458E+03  0.91006040441E+02 0.  0.
          5    1    3    3  501    0  0.40699368300E+02  0.20137969292E+02  0.38276898441E+02  0.59575056370E+02  0.47000000000E+01 0. -1.
        -13    1    4    4    0    0 -0.57226574587E+01  0.10029297458E+02  0.20980581323E+03  0.21012333255E+03  0.00000000000E+00 0.  1.
         14    1    4    4    0    0  0.48489408608E+02 -0.72215017404E+02  0.33689233208E+03  0.34794061979E+03  0.00000000000E+00 0. -1.
         -5    1    5    5    0  502 -0.18736056962E+02  0.61041742344E+02  0.19420339475E+03  0.20448516492E+03  0.47000000000E+01 0.  1.
         13    1    6    6    0    0 -0.79755199210E+02 -0.11100199840E+02  0.40834503044E+03  0.41620880591E+03  0.00000000000E+00 0. -1.
        -14    1    6    6    0    0  0.15025136723E+02 -0.78937918500E+01  0.36444823339E+03  0.36484322867E+03  0.00000000000E+00 0.  1.
</event>
<event>
12    1  0.1596842E-001  0.2117548E+03  0.7818608E-02  0.1140388E+00
         21   -1    0    0  501  502  0.00000000000E+00  0.00000000000E+00  0.31539015267E+02  0.31539015267E+02  0.00000000000E+00 0. -1.
         21   -1    0    0  502  503 -0.00000000000E+00 -0.00000000000E+00 -0.21113462250E+04  0.21113462250E+04  0.00000000000E+00 0.  1.
         -6    2    1    2    0  503  0.86265339789E+02 -0.86848024748E+02 -0.16570422042E+04  0.16705175740E+04  0.17278834024E+03 0.  0.
        -24    2    3    3    0    0  0.36772693058E+02 -0.22456674112E+02 -0.13429332737E+04  0.13460452665E+04  0.80694168724E+02 0.  0.
          6    2    1    2  501    0 -0.86265339789E+02  0.86848024748E+02 -0.42276500551E+03  0.47236766618E+03  0.17151289722E+03 0.  0.
         24    2    5    5    0    0 -0.53506498314E+02  0.97479363696E+02 -0.41348531588E+03  0.43639031633E+03  0.84268796292E+02 0.  0.
          5    1    5    5  501    0 -0.32758841475E+02 -0.10631338948E+02 -0.92796896359E+01  0.35977349851E+02  0.47000000000E+01 0. -1.
        -11    1    6    6    0    0  0.10728054713E+02  0.91941890143E+01 -0.15699427910E+03  0.15762876622E+03  0.00000000000E+00 0.  1.
         12    1    6    6    0    0 -0.64234553027E+02  0.88285174682E+02 -0.25649103678E+03  0.27876155011E+03  0.00000000000E+00 0. -1.
         -5    1    3    3    0  503  0.49492646730E+02 -0.64391350635E+02 -0.31410893051E+03  0.32447230752E+03  0.47000000000E+01 0.  1.
         13    1    4    4    0    0 -0.24537879719E+02 -0.13063831571E+02 -0.54286842116E+03  0.54357970338E+03  0.00000000000E+00 0. -1.
        -14    1    4    4    0    0  0.61310572777E+02 -0.93928425416E+01 -0.80006485251E+03  0.80246556315E+03  0.00000000000E+00 0.  1.
</event>
<event>
12    1  0.1596842E-001  0.2034922E+03  0.7818608E-02  0.1146928E+00
         21   -1    0    0  503  502  0.00000000000E+00  0.00000000000E+00  0.23719735984E+03  0.23719735984E+03  0.00000000000E+00 0.  1.
         21   -1    0    0  501  503 -0.00000000000E+00 -0.00000000000E+00 -0.27176604108E+03  0.27176604108E+03  0.00000000000E+00 0.  1.
          6    2    1    2  501    0  0.10073936760E+03 -0.39584968051E+02 -0.16978585027E+03  0.26464238003E+03  0.17173515795E+03 0.  0.
         24    2    3    3    0    0  0.11763173935E+03 -0.38975980864E+02 -0.68996563422E+02  0.16233747579E+03  0.78972001974E+02 0.  0.
         -6    2    1    2    0  502 -0.10073936760E+03  0.39584968051E+02  0.13521716904E+03  0.24432102089E+03  0.17231856710E+03 0.  0.
        -24    2    5    5    0    0 -0.10766499568E+03  0.61229227874E+02  0.50830836991E+02  0.15680198671E+03  0.81623032322E+02 0.  0.
          5    1    3    3  501    0 -0.16892371746E+02 -0.60898718621E+00 -0.10078928685E+03  0.10230490424E+03  0.47000000000E+01 0. -1.
        -11    1    4    4    0    0  0.73159355396E+02  0.77078916715E+01 -0.64275829374E+02  0.97688715406E+02  0.00000000000E+00 0.  1.
         12    1    4    4    0    0  0.44472383949E+02 -0.46683872536E+02 -0.47207340474E+01  0.64648760383E+02  0.00000000000E+00 0. -1.
         -5    1    5    5    0  502  0.69256280856E+01 -0.21644259823E+02  0.84386332046E+02  0.87519034180E+02  0.47000000000E+01 0.  1.
         11    1    6    6    0    0  0.78864273644E+01 -0.22753129544E-01 -0.98582719994E+01  0.12624649741E+02  0.00000000000E+00 0. -1.
        -12    1    6    6    0    0 -0.11555142305E+03  0.61251981003E+02  0.60689108991E+02  0.14417733697E+03  0.00000000000E+00 0.  1.
</event>
<event>
12    1  0.1596842E-001  0.1734812E+03  0.7818608E-02  0.1174443E+00
         21   -1    0    0  503  502  0.00000000000E+00  0.00000000000E+00  0.29748605731E+02  0.29748605731E+02  0.00000000000E+00 0. -1.
         21   -1    0    0  501  503 -0.00000000000E+00 -0.00000000000E+00 -0.10397597417E+04  0.10397597417E+04  0.00000000000E+00 0. -1.
          6    2    1    2  501    0 -0.11418451229E+02  0.26795618806E+02 -0.59805395322E+03  0.62251345793E+03  0.17031173806E+03 0.  0.
         24    2    3    3    0    0  0.25102426801E+02 -0.42132262813E+02 -0.28946355596E+03  0.30418194727E+03  0.79575419661E+02 0.  0.
         -6    2    1    2    0  502  0.11418451229E+02 -0.26795618806E+02 -0.41195718271E+03  0.44699488947E+03  0.17101849200E+03 0.  0.
        -24    2    5    5    0    0  0.67482310499E+02 -0.45186614093E+01 -0.32274818638E+03  0.33919992589E+03  0.79472746133E+02 0.  0.
          5    1    3    3  501    0 -0.36520878029E+02  0.68927881618E+02 -0.30859039726E+03  0.31833151066E+03  0.47000000000E+01 0. -1.
        -13    1    4    4    0    0  0.83370043231E+00 -0.55923546215E+01  0.43363334759E+01  0.71255367965E+01  0.00000000000E+00 0.  1.
         14    1    4    4    0    0  0.24268726368E+02 -0.36539908191E+02 -0.29379988943E+03  0.29705641047E+03  0.00000000000E+00 0. -1.
         -5    1    5    5    0  502 -0.56063859270E+02 -0.22276957397E+02 -0.89208996325E+02  0.10779496358E+03  0.47000000000E+01 0.  1.
         11    1    6    6    0    0 -0.11641319027E+02 -0.17390012317E+02 -0.37981688983E+02  0.43365211115E+02  0.00000000000E+00 0. -1.
        -12    1    6    6    0    0  0.79123629525E+02  0.12871350907E+02 -0.28476649740E+03  0.29583471477E+03  0.00000000000E+00 0.  1.
</event>
<event>
12    1  0.1596842E-001  0.2985442E+03  0.7818608E-02  0.1085983E+00
         21   -1    0    0  503  502  0.00000000000E+00  0.00000000000E+00  0.11758551544E+03  0.11758551544E+03  0.00000000000E+00 0. -1.
         21   -1    0    0  501  503 -0.00000000000E+00 -0.00000000000E+00 -0.76452743149E+03  0.76452743149E+03  0.00000000000E+00 0. -1.
          6    2    1    2  501    0 -0.18299821461E+03  0.16077541727E+03 -0.28196927113E+03  0.41065232049E+03  0.17260236706E+03 0.  0.
         24    2    3    3    0    0 -0.98585741323E+02  0.46069445562E+02 -0.62848713425E+02  0.14927360215E+03  0.80567396098E+02 0.  0.
         -6    2    1    2    0  502  0.18299821461E+03 -0.16077541727E+03 -0.36497264492E+03  0.47146062643E+03  0.17243262276E+03 0.  0.
        -24    2    5    5    0    0  0.17690965630E+02 -0.31984087319E+02 -0.85820510122E+02  0.12237367796E+03  0.79209879388E+02 0.  0.
          5    1    3    3  501    0 -0.84412473282E+02  0.11470597170E+03 -0.21912055771E+03  0.26137871834E+03  0.47000000000E+01 0. -1.
        -11    1    4    4    0    0 -0.10954970026E+03  0.26390760236E+02 -0.55249916656E+02  0.12549965077E+03  0.00000000000E+00 0.  1.
         12    1    4    4    0    0  0.10963958942E+02  0.19678685326E+02 -0.75987967698E+01  0.23773951379E+02  0.00000000000E+00 0. -1.
         -5    1    5    5    0  502  0.16530724898E+03 -0.12879132995E+03 -0.27915213480E+03  0.34908694847E+03  0.47000000000E+01 0.  1.
         13    1    6    6    0    0  0.38847142723E+02 -0.29060800690E+02 -0.18794919533E+02  0.52027681428E+02  0.00000000000E+00 0. -1.
        -14    1    6    6    0    0 -0.21156177094E+02 -0.29232866287E+01 -0.67025590589E+02  0.70345996530E+02  0.00000000000E+00 0.  1.
</event>
<event>
12    1  0.1596842E-001  0.1921851E+03  0.7818608E-02  0.1156716E+00
         21   -1    0    0  501  502  0.00000000000E+00  0.00000000000E+00  0.91522992321E+03  0.91522992321E+03  0.00000000000E+00 0.  1.
         21   -1    0    0  502  503 -0.00000000000E+00 -0.00000000000E+00 -0.40416576922E+02  0.40416576922E+02  0.00000000000E+00 0.  1.
         -6    2    1    2    0  503  0.77964535506E+02 -0.26527310593E+02  0.39810038053E+03  0.44165196448E+03  0.17259889266E+03 0.  0.
        -24    2    3    3    0    0  0.59854073208E+02 -0.85558825346E+02  0.27451489096E+03  0.30341965346E+03  0.76172423297E+02 0.  0.
          6    2    1    2  501    0 -0.77964535506E+02  0.26527310593E+02  0.47671296576E+03  0.51399453565E+03  0.17364608822E+03 0.  0.
         24    2    5    5    0    0 -0.10767537885E+03  0.77846315442E+01  0.24473075896E+03  0.27932059909E+03  0.80450388414E+02 0.  0.
          5    1    5    5  501    0  0.29710843346E+02  0.18742679049E+02  0.23198220680E+03  0.23467393656E+03  0.47000000000E+01 0. -1.
        -11    1    6    6    0    0 -0.23761630829E+02 -0.20308737690E+01  0.15205826499E+03  0.15391704097E+03  0.00000000000E+00 0.  1.
         12    1    6    6    0    0 -0.83913748023E+02  0.98155053132E+01  0.92672493974E+02  0.12540355813E+03  0.00000000000E+00 0. -1.
         -5    1    3    3    0  503  0.18110462298E+02  0.59031514753E+02  0.12358548957E+03  0.13823231102E+03  0.47000000000E+01 0.  1.
         11    1    4    4    0    0 -0.17482621771E+02 -0.71512685472E+01  0.34140410695E+02  0.39017308316E+02  0.00000000000E+00 0. -1.
        -12    1    4    4    0    0  0.77336694979E+02 -0.78407556799E+02  0.24037448026E+03  0.26440234514E+03  0.00000000000E+00 0.  1.
</event>
<event>
12    1  0.1596842E-001  0.1853158E+03  0.7818608E-02  0.1163260E+00
         21   -1    0    0  503  502  0.00000000000E+00  0.00000000000E+00  0.11525534193E+03  0.11525534193E+03  0.00000000000E+00 0.  1.
         21   -1    0    0  501  503 -0.00000000000E+00 -0.00000000000E+00 -0.57028804427E+03  0.57028804427E+03  0.00000000000E+00 0.  1.
          6    2    1    2  501    0  0.62353723166E+02 -0.21884349555E+02 -0.46656050320E+03  0.50201657422E+03  0.17313297232E+03 0.  0.
         24    2    3    3    0    0  0.32874567991E+01 -0.58657877384E+02 -0.36762902794E+03  0.38097673381E+03  0.80874072280E+02 0.  0.
         -6    2    1    2    0  502 -0.62353723166E+02  0.21884349555E+02  0.11527800856E+02  0.18352681198E+03  0.17082824408E+03 0.  0.
        -24    2    5    5    0    0 -0.12021633917E+02 -0.46423959479E+02 -0.15594134925E+02  0.94324605216E+02  0.79713552231E+02 0.  0.
          5    1    3    3  501    0  0.59066266367E+02  0.36773527829E+02 -0.98931475256E+02  0.12103984042E+03  0.47000000000E+01 0. -1.
        -13    1    4    4    0    0  0.17583177533E+02 -0.10465558011E+02 -0.16550053354E+02  0.26317300444E+02  0.00000000000E+00 0.  1.
         14    1    4    4    0    0 -0.14295720734E+02 -0.48192319373E+02 -0.35107897458E+03  0.35465943336E+03  0.00000000000E+00 0. -1.
         -5    1    5    5    0  502 -0.50332089249E+02  0.68308309034E+02  0.27121935781E+02  0.89202206765E+02  0.47000000000E+01 0.  1.
         13    1    6    6    0    0 -0.39528411666E+02 -0.45252314409E+02 -0.25212873576E+02  0.65161002771E+02  0.00000000000E+00 0. -1.
        -14    1    6    6    0    0  0.27506777749E+02 -0.11716450700E+01  0.96187386515E+01  0.29163602444E+02  0.00000000000E+00 0.  1.
</event>
<event>
12    1  0.1596842E-001  0.2744517E+03  0.7818608E-02  0.1099666E+00
         21   -1    0    0  501  502  0.00000000000E+00  0.00000000000E+00  0.86543097244E+02  0.86543097244E+02  0.00000000000E+00 0.  1.
         21   -1    0    0  502  503 -0.00000000000E+00 -0.00000000000E+00 -0.89176496858E+03  0.89176496858E+03  0.00000000000E+00 0. -1.
         -6    2    1    2    0  503 -0.12701797273E+03  0.16079253569E+03 -0.30152795382E+03  0.40772891105E+03  0.18258136005E+03 0.  0.
        -24    2    3    3    0    0 -0.10217505121E+03  0.63034430214E+02 -0.26272699786E+03  0.29955579923E+03  0.79341798372E+02 0.  0.
          6    2    1    2  501    0  0.12701797273E+03 -0.16079253569E+03 -0.50369391751E+03  0.57057915477E+03  0.17281552127E+03 0.  0.
         24    2    5    5    0    0  0.15190117633E+03 -0.16885736711E+03 -0.46263336007E+03  0.52166826943E+03  0.80755059865E+02 0.  0.
          5    1    5    5  501    0 -0.24883203594E+02  0.80648314137E+01 -0.41060557448E+02  0.48910885340E+02  0.47000000000E+01 0. -1.
        -11    1    6    6    0    0 -0.22838623668E+01  0.62535741458E+01 -0.63890372250E+01  0.92272971974E+01  0.00000000000E+00 0.  1.
         12    1    6    6    0    0  0.15418503869E+03 -0.17511094125E+03 -0.45624432284E+03  0.51244097224E+03  0.00000000000E+00 0. -1.
         -5    1    3    3    0  503 -0.24842921524E+02  0.97758105477E+02 -0.38800955967E+02  0.10817311182E+03  0.47000000000E+01 0.  1.
         13    1    4    4    0    0  0.11631760844E+02 -0.33871090039E+01 -0.23415699188E+02  0.26364091796E+02  0.00000000000E+00 0. -1.
        -14    1    4    4    0    0 -0.11380681205E+03  0.66421539218E+02 -0.23931129867E+03  0.27319170744E+03  0.00000000000E+00 0.  1.
</event>
<event>
12    1  0.1596842E-001  0.2335121E+03  0.7818608E-02  0.1124317E+00
         21   -1    0    0  501  502  0.00000000000E+00  0.00000000000E+00  0.74304173148E+03  0.74304173148E+03  0.00000000000E+00 0.  1.
         21   -1    0    0  502  503 -0.00000000000E+00 -0.00000000000E+00 -0.75640757066E+02  0.75640757066E+02  0.00000000000E+00 0. -1.
         -6    2    1    2    0  503 -0.15688569138E+03 -0.19245228385E+01  0.40836671951E+03  0.47041605180E+03  0.17294814322E+03 0.  0.
        -24    2    3    3    0    0 -0.12480405560E+03 -0.26132316317E+02  0.16326482538E+03  0.22199649314E+03  0.79800310213E+02 0.  0.
          6    2    1    2  501    0  0.15688569138E+03  0.19245228385E+01  0.25903425491E+03  0.34826643675E+03  0.17197075857E+03 0.  0.
         24    2    5    5    0    0  0.10128679781E+02 -0.17060075782E+02  0.11624070443E+03  0.14257218915E+03  0.80132960834E+02 0.  0.
          5    1    5    5  501    0  0.14675701159E+03  0.18984598620E+02  0.14279355047E+03  0.20569424760E+03  0.47000000000E+01 0. -1.
        -13    1    6    6    0    0  0.43179311123E+01 -0.47837617795E+02  0.88675562325E+02  0.10084858729E+03  0.00000000000E+00 0.  1.
         14    1    6    6    0    0  0.58107486688E+01  0.30777542013E+02  0.27565142110E+02  0.41723601858E+02  0.00000000000E+00 0. -1.
         -5    1    3    3    0  503 -0.32081635774E+02  0.24207793479E+02  0.24510189414E+03  0.24841955867E+03  0.47000000000E+01 0.  1.
         11    1    4    4    0    0 -0.61201668663E+02 -0.45579783423E+02  0.12145293269E+03  0.14343631257E+03  0.00000000000E+00 0. -1.
        -12    1    4    4    0    0 -0.63602386938E+02  0.19447467106E+02  0.41811892681E+02  0.78560180566E+02  0.00000000000E+00 0.  1.
</event>
<event>
12    1  0.1596842E-001  0.1817078E+03  0.7818608E-02  0.1166194E+00
         21   -1    0    0  501  502  0.00000000000E+00  0.00000000000E+00  0.62521552160E+03  0.62521552160E+03  0.00000000000E+00 0. -1.
         21   -1    0    0  502  503 -0.00000000000E+00 -0.00000000000E+00 -0.10185607758E+03  0.10185607758E+03  0.00000000000E+00 0. -1.
         -6    2    1    2    0  503 -0.23926943796E+02  0.54119409665E+02  0.92589062154E+01  0.18180369381E+03  0.17165502206E+03 0.  0.
        -24    2    3    3    0    0  0.45435111084E+02  0.40447200766E+00 -0.95806220430E+01  0.91951554108E+02  0.79364898206E+02 0.  0.
          6    2    1    2  501    0  0.23926943796E+02 -0.54119409665E+02  0.51410053780E+03  0.54526790537E+03  0.17180313303E+03 0.  0.
         24    2    5    5    0    0 -0.69127823766E+01 -0.49767340683E+02  0.14401110064E+03  0.17384050909E+03  0.83407138376E+02 0.  0.
          5    1    5    5  501    0  0.30839726173E+02 -0.43520689816E+01  0.37008943716E+03  0.37142739629E+03  0.47000000000E+01 0. -1.
        -11    1    6    6    0    0  0.33309927049E+02 -0.24232993716E+02  0.32141039232E+02  0.52247828925E+02  0.00000000000E+00 0.  1.
         12    1    6    6    0    0 -0.40222709426E+02 -0.25534346967E+02  0.11187006141E+03  0.12159268016E+03  0.00000000000E+00 0. -1.
         -5    1    3    3    0  503 -0.69362054880E+02  0.53714937657E+02  0.18839528258E+02  0.89852139706E+02  0.47000000000E+01 0.  1.
         13    1    4    4    0    0  0.92060474825E+01  0.11256238803E+02 -0.40544593272E+02  0.43073405552E+02  0.00000000000E+00 0. -1.
        -14    1    4    4    0    0  0.36229063601E+02 -0.10851766795E+02  0.30963971229E+02  0.48878148556E+02  0.00000000000E+00 0.  1.
</event>
<event>
12    1  0.1596842E-001  0.2222827E+03  0.7818608E-02  0.1132321E+00
         21   -1    0    0  501  502  0.00000000000E+00  0.00000000000E+00  0.71750534342E+03  0.71750534342E+03  0.00000000000E+00 0. -1.
         21   -1    0    0  502  503 -0.00000000000E+00 -0.00000000000E+00 -0.69336732369E+02  0.69336732369E+02  0.00000000000E+00 0.  1.
         -6    2    1    2    0  503  0.13252139163E+03  0.45201141484E+02  0.28436865224E+03  0.36050885104E+03  0.17174410869E+03 0.  0.
        -24    2    3    3    0    0  0.13127198471E+03  0.56089505439E+02  0.13642919645E+03  0.21208954614E+03  0.77399504833E+02 0.  0.
          6    2    1    2  501    0 -0.13252139163E+03 -0.45201141484E+02  0.36379995881E+03  0.42633322475E+03  0.17263993184E+03 0.  0.
         24    2    5    5    0    0 -0.69540444891E+02 -0.82151808740E+02  0.30289294853E+03  0.33112973026E+03  0.79485639177E+02 0.  0.
          5    1    5    5  501    0 -0.62980946734E+02  0.36950667256E+02  0.60907010273E+02  0.95203494488E+02  0.47000000000E+01 0. -1.
        -11    1    6    6    0    0 -0.56728589080E+02 -0.67981721889E+01  0.12000119027E+03  0.13290836554E+03  0.00000000000E+00 0.  1.
         12    1    6    6    0    0 -0.12811855811E+02 -0.75353636551E+02  0.18289175826E+03  0.19822136472E+03  0.00000000000E+00 0. -1.
         -5    1    3    3    0  503  0.12494069181E+01 -0.10888363955E+02  0.14793945579E+03  0.14841930490E+03  0.47000000000E+01 0.  1.
         11    1    4    4    0    0  0.60564145002E+02  0.48810717734E+02  0.11312148257E+03  0.13728427311E+03  0.00000000000E+00 0. -1.
        -12    1    4    4    0    0  0.70707839706E+02  0.72787877046E+01  0.23307713882E+02  0.74805273027E+02  0.00000000000E+00 0.  1.
</event>
<event>
12    1  0.1596842E-001  0.2366425E+03  0.7818608E-02  0.1122098E+00
         21   -1    0    0  501  502  0.00000000000E+00  0.00000000000E+00  0.62167718724E+02  0.62167718724E+02  0.00000000000E+00 0. -1.
         21   -1    0    0  502  503 -0.00000000000E+00 -0.00000000000E+00 -0.13305002204E+04  0.13305002204E+04  0.00000000000E+00 0. -1.
         -6    2    1    2    0  503  0.38450837067E+02 -0.15812970716E+03 -0.10301367626E+04  0.10569047908E+04  0.17141329050E+03 0.  0.
        -24    2    3    3    0    0  0.62401524343E+02 -0.12439356834E+03 -0.97249297828E+03  0.98579460626E+03  0.81735566664E+02 0.  0.
          6    2    1    2  501    0 -0.38450837067E+02  0.15812970716E+03 -0.23819573911E+03  0.33576314828E+03  0.17180282436E+03 0.  0.
         24    2    5    5    0    0 -0.32848778390E+02  0.18744716930E+03 -0.20421744497E+03  0.29029325582E+03  0.79686423087E+02 0.  0.
          5    1    5    5  501    0 -0.56020586776E+01 -0.29317462142E+02 -0.33978294135E+02  0.45469892458E+02  0.47000000000E+01 0. -1.
        -13    1    6    6    0    0  0.15995209723E+02  0.45816587047E+02 -0.88720507274E+02  0.10112534200E+03  0.00000000000E+00 0.  1.
         14    1    6    6    0    0 -0.48843988112E+02  0.14163058225E+03 -0.11549693770E+03  0.18916791383E+03  0.00000000000E+00 0. -1.
         -5    1    3    3    0  503 -0.23950687276E+02 -0.33736138821E+02 -0.57643784288E+02  0.71110184577E+02  0.47000000000E+01 0.  1.
         11    1    4    4    0    0  0.48876721565E+01 -0.21598304009E+02 -0.43421387681E+03  0.43477818125E+03  0.00000000000E+00 0. -1.
        -12    1    4    4    0    0  0.57513852187E+02 -0.10279526433E+03 -0.53827910147E+03  0.55101642502E+03  0.00000000000E+00 0.  1.
</event>
<event>
12    1  0.1596842E-001  0.2096177E+03  0.7818608E-02  0.1141980E+00
         21   -1    0    0  503  502  0.00000000000E+00  0.00000000000E+00  0.70013291207E+03  0.70013291207E+03  0.00000000000E+00 0. -1.
         21   -1    0    0  501  503 -0.00000000000E+00 -0.00000000000E+00 -0.63133105079E+02  0.63133105079E+02  0.00000000000E+00 0.  1.
          6    2    1    2  501    0 -0.11270207413E+03  0.39306906688E+02  0.35339383977E+03  0.41060197996E+03  0.17163912589E+03 0.  0.
         24    2    3    3    0    0 -0.87418721637E+02  0.27909731071E+01  0.34252408182E+03  0.36463565581E+03  0.89367737094E+02 0.  0.
         -6    2    1    2    0  502  0.11270207413E+03 -0.39306906688E+02  0.28360596722E+03  0.35266403718E+03  0.17231595415E+03 0.  0.
        -24    2    5    5    0    0  0.14498791792E+03 -0.50723565385E+02  0.24934279863E+03  0.30399402047E+03  0.81523964719E+02 0.  0.
          5    1    3    3  501    0 -0.25283352496E+02  0.36515933581E+02  0.10869757947E+02  0.45966324157E+02  0.47000000000E+01 0. -1.
        -11    1    4    4    0    0 -0.27475069501E+02  0.43555255952E+02  0.16607668213E+03  0.17387755494E+03  0.00000000000E+00 0.  1.
         12    1    4    4    0    0 -0.59943652136E+02 -0.40764282845E+02  0.17644739969E+03  0.19075810086E+03  0.00000000000E+00 0. -1.
         -5    1    5    5    0  502 -0.32285843792E+02  0.11416658697E+02  0.34263168589E+02  0.48670016714E+02  0.47000000000E+01 0.  1.
         11    1    6    6    0    0  0.61733210643E+02 -0.56893501710E+02  0.83940223447E+02  0.11871739951E+03  0.00000000000E+00 0. -1.
        -12    1    6    6    0    0  0.83254707281E+02  0.61699363244E+01  0.16540257518E+03  0.18527662096E+03  0.00000000000E+00 0.  1.
</event>
<event>
12    1  0.1596842E-001  0.2368844E+03  0.7818608E-02  0.1122380E+00
         21   -1    0    0  503  502  0.00000000000E+00  0.00000000000E+00  0.40892816545E+03  0.40892816545E+03  0.00000000000E+00 0.  1.
         21   -1    0    0  501  503 -0.00000000000E+00 -0.00000000000E+00 -0.22164994697E+03  0.22164994697E+03  0.00000000000E+00 0.  1.
          6    2    1    2  501    0 -0.15429821319E+03 -0.46091702451E+02 -0.10251341908E+03  0.25811476607E+03  0.17372923687E+03 0.  0.
         24    2    3    3    0    0 -0.38291323589E+02 -0.54718892764E+02  0.37531973262E+01  0.10048637202E+03  0.74986944095E+02 0.  0.
         -6    2    1    2    0  502  0.15429821319E+03  0.46091702451E+02  0.28979163756E+03  0.37246334635E+03  0.16975678938E+03 0.  0.
        -24    2    5    5    0    0  0.12400053155E+03  0.82850474557E+02  0.15490225967E+03  0.22933266791E+03  0.79739761491E+02 0.  0.
          5    1    3    3  501    0 -0.11600688961E+03  0.86271903124E+01 -0.10626661640E+03  0.15762839405E+03  0.47000000000E+01 0. -1.
        -13    1    4    4    0    0 -0.39632123495E+02 -0.62097768816E+02 -0.19375204973E+02  0.76172414116E+02  0.00000000000E+00 0.  1.
         14    1    4    4    0    0  0.13407999061E+01  0.73788760518E+01  0.23128402299E+02  0.24313957906E+02  0.00000000000E+00 0. -1.
         -5    1    5    5    0  502  0.30297681646E+02 -0.36758772106E+02  0.13488937789E+03  0.14313067843E+03  0.47000000000E+01 0.  1.
         11    1    6    6    0    0  0.69628651062E+01 -0.13878381901E+02  0.25401827809E+02  0.29771527181E+02  0.00000000000E+00 0. -1.
        -12    1    6    6    0    0  0.11703766644E+03  0.96728856459E+02  0.12950043186E+03  0.19956114073E+03  0.00000000000E+00 0.  1.
</event>
<event>
12    1  0.1596842E-001  0.2074738E+03  0.7818608E-02  0.1144244E+00
         21   -1    0    0  503  502  0.00000000000E+00  0.00000000000E+00  0.88220058013E+03  0.88220058013E+03  0.00000000000E+00 0. -1.
         21   -1    0    0  501  503 -0.00000000000E+00 -0.00000000000E+00 -0.75870645179E+02  0.75870645179E+02  0.00000000000E+00 0. -1.
          6    2    1    2  501    0 -0.10848768786E+03 -0.16754651307E+02  0.11095840851E+03  0.23240813274E+03  0.17219603650E+03 0.  0.
         24    2    3    3    0    0 -0.28972378817E+02  0.46171611179E+02  0.82540470190E+02  0.12699433810E+03  0.79645566580E+02 0.  0.
         -6    2    1    2    0  502  0.10848768786E+03  0.16754651307E+02  0.69537152644E+03  0.72566309257E+03  0.17605416034E+03 0.  0.
        -24    2    5    5    0    0  0.13430939356E+03  0.29166359715E+01  0.66511296519E+03  0.68328477639E+03  0.80344938966E+02 0.  0.
          5    1    3    3  501    0 -0.79515309046E+02 -0.62926262487E+02  0.28417938322E+02  0.10541379465E+03  0.47000000000E+01 0. -1.
        -13    1    4    4    0    0 -0.11075172759E+02 -0.12189416665E+02  0.59516325564E+02  0.61753010768E+02  0.00000000000E+00 0.  1.
         14    1    4    4    0    0 -0.17897206058E+02  0.58361027844E+02  0.23024144626E+02  0.65241327327E+02  0.00000000000E+00 0. -1.
         -5    1    5    5    0  502 -0.25821705693E+02  0.13838015336E+02  0.30258561251E+02  0.42378316181E+02  0.47000000000E+01 0.  1.
         11    1    6    6    0    0  0.10812882142E+03 -0.25109938642E+02  0.57040382229E+03  0.58110487137E+03  0.00000000000E+00 0. -1.
        -12    1    6    6    0    0  0.26180572131E+02  0.28026574613E+02  0.94709142898E+02  0.10217990502E+03  0.00000000000E+00 0.  1.
</event>
<event>
12    1  0.1596842E-001  0.2330858E+03  0.7818608E-02  0.1124740E+00
         21   -1    0    0  501  502  0.00000000000E+00  0.00000000000E+00  0.57930866797E+02  0.57930866797E+02  0.00000000000E+00 0.  1.
         21   -1    0    0  502  503 -0.00000000000E+00 -0.00000000000E+00 -0.93215409433E+03  0.93215409433E+03  0.00000000000E+00 0.  1.
         -6    2    1    2    0  503 -0.88524113280E+02 -0.13010702282E+03 -0.42843945779E+03  0.48704207996E+03  0.16995664929E+03 0.  0.
        -24    2    3    3    0    0 -0.30241562995E+02 -0.36691779587E+02 -0.87359648753E+02  0.12859990963E+03  0.81519259719E+02 0.  0.
          6    2    1    2  501    0  0.88524113280E+02  0.13010702282E+03 -0.44578376974E+03  0.50304288117E+03  0.17194363876E+03 0.  0.
         24    2    5    5    0    0  0.54803482153E+02  0.12258276738E+03 -0.19617428890E+03  0.25100979146E+03  0.80570511157E+02 0.  0.
          5    1    5    5  501    0  0.33720631127E+02  0.75242554403E+01 -0.24960948084E+03  0.25203308971E+03  0.47000000000E+01 0. -1.
        -13    1    6    6    0    0  0.15622689932E+02  0.11236906232E+03 -0.16337031541E+03  0.19889880483E+03  0.00000000000E+00 0.  1.
         14    1    6    6    0    0  0.39180792221E+02  0.10213705053E+02 -0.32803973498E+02  0.52110986627E+02  0.00000000000E+00 0. -1.
         -5    1    3    3    0  503 -0.58282550285E+02 -0.93415243230E+02 -0.34107980904E+03  0.35844217033E+03  0.47000000000E+01 0.  1.
         11    1    4    4    0    0  0.14529606515E+02  0.17319331967E+02 -0.11828138585E+02  0.25514184048E+02  0.00000000000E+00 0. -1.
        -12    1    4    4    0    0 -0.44771169511E+02 -0.54011111554E+02 -0.75531510168E+02  0.10308572558E+03  0.00000000000E+00 0.  1.
</event>
<event>
12    1  0.1596842E-001  0.3466978E+03  0.7818608E-02  0.1064127E+00
         21   -1    0    0  503  502  0.00000000000E+00  0.00000000000E+00  0.99855986826E+03  0.99855986826E+03  0.00000000000E+00 0.  1.
         21   -1    0    0  501  503 -0.00000000000E+00 -0.00000000000E+00 -0.13086681205E+03  0.13086681205E+03  0.00000000000E+00 0.  1.
          6    2    1    2  501    0  0.19802683333E+03  0.22534861399E+03  0.27103021080E+03  0.44006444808E+03  0.17378929411E+03 0.  0.
         24    2    3    3    0    0  0.53103692248E+02  0.14805236666E+03  0.16873113406E+03  0.24650665884E+03  0.86924288013E+02 0.  0.
         -6    2    1    2    0  502 -0.19802683333E+03 -0.22534861399E+03  0.59666284541E+03  0.68936223223E+03  0.17093013655E+03 0.  0.
        -24    2    5    5    0    0 -0.54179995356E+02 -0.27003320523E+02  0.15839767300E+03  0.18723553548E+03  0.79389367799E+02 0.  0.
          5    1    3    3  501    0  0.14492314108E+03  0.77296247336E+02  0.10229907673E+03  0.19355778924E+03  0.47000000000E+01 0. -1.
        -13    1    4    4    0    0  0.43516644724E+02  0.14219710315E+03  0.10560817169E+03  0.18239188699E+03  0.00000000000E+00 0.  1.
         14    1    4    4    0    0  0.95870475240E+01  0.58552635105E+01  0.63122962368E+02  0.64114771848E+02  0.00000000000E+00 0. -1.
         -5    1    5    5    0  502 -0.14384683798E+03 -0.19834529347E+03  0.43826517241E+03  0.50212669675E+03  0.47000000000E+01 0.  1.
         11    1    6    6    0    0 -0.50493839311E+02  0.13662064608E+02  0.54211488229E+02  0.75333692819E+02  0.00000000000E+00 0. -1.
        -12    1    6    6    0    0 -0.36861560446E+01 -0.40665385132E+02  0.10418618477E+03  0.11190184267E+03  0.00000000000E+00 0.  1.
</event>
<event>
12    1  0.1596842E-001  0.2582144E+03  0.7818608E-02  0.1108320E+00
         21   -1    0    0  503  502  0.00000000000E+00  0.00000000000E+00  0.56433919643E+03  0.56433919643E+03  0.00000000000E+00 0.  1.
         21   -1    0    0  501  503 -0.00000000000E+00 -0.00000000000E+00 -0.11897749685E+03  0.11897749685E+03  0.00000000000E+00 0.  1.
          6    2    1    2  501    0 -0.86153794846E+02  0.17148544126E+03  0.25625592119E+03  0.36378809211E+03  0.17275689823E+03 0.  0.
         24    2    3    3    0    0 -0.52950617454E+02  0.10944410928E+03  0.65340723546E+02  0.16026344850E+03  0.81444348050E+02 0.  0.
         -6    2    1    2    0  502  0.86153794846E+02 -0.17148544126E+03  0.18910577839E+03  0.31952860117E+03  0.17177834153E+03 0.  0.
        -24    2    5    5    0    0 -0.13022384650E+02 -0.10351692907E+03  0.66632350835E+02  0.14783857908E+03  0.80814838872E+02 0.  0.
          5    1    3    3  501    0 -0.33203177392E+02  0.62041331981E+02  0.19091519764E+03  0.20352464360E+03  0.47000000000E+01 0. -1.
        -11    1    4    4    0    0 -0.27824756535E+02  0.33395779063E+02  0.67335396796E+02  0.80147057321E+02  0.00000000000E+00 0.  1.
         12    1    4    4    0    0 -0.25125860918E+02  0.76048330212E+02 -0.19946732505E+01  0.80116391184E+02  0.00000000000E+00 0. -1.
         -5    1    5    5    0  502  0.99176179496E+02 -0.67968512189E+02  0.12247342756E+03  0.17169002209E+03  0.47000000000E+01 0.  1.
         11    1    6    6    0    0 -0.31354442370E+02 -0.17398921247E+02 -0.24245739842E+01  0.35940257037E+02  0.00000000000E+00 0. -1.
        -12    1    6    6    0    0  0.18332057720E+02 -0.86118007820E+02  0.69056924819E+02  0.11189832205E+03  0.00000000000E+00 0.  1.
</event>
<event>
12    1  0.1596842E-001  0.2018064E+03  0.7818608E-02  0.1148516E+00
         21   -1    0    0  501  502  0.00000000000E+00  0.00000000000E+00  0.37121156395E+03  0.37121156395E+03  0.00000000000E+00 0.  1.
         21   -1    0    0  502  503 -0.00000000000E+00 -0.00000000000E+00 -0.11620632636E+03  0.11620632636E+03  0.00000000000E+00 0.  1.
         -6    2    1    2    0  503 -0.15875009418E+02 -0.10097367268E+03  0.18880219405E+03  0.27635502100E+03  0.17400612247E+03 0.  0.
        -24    2    3    3    0    0 -0.69223024221E+01 -0.13265121679E+03  0.18696772782E+03  0.24305227292E+03  0.80456277204E+02 0.  0.
          6    2    1    2  501    0  0.15875009418E+02  0.10097367268E+03  0.66203043539E+02  0.21106286930E+03  0.17238617499E+03 0.  0.
         24    2    5    5    0    0  0.20489608683E+02  0.77240170820E+02 -0.26334849678E+02  0.11530314229E+03  0.78837949378E+02 0.  0.
          5    1    5    5  501    0 -0.46145992657E+01  0.23733501862E+02  0.92537893216E+02  0.95759727015E+02  0.47000000000E+01 0. -1.
        -11    1    6    6    0    0 -0.95541717483E+01  0.34807282249E+02 -0.47080819842E+02  0.59324806720E+02  0.00000000000E+00 0.  1.
         12    1    6    6    0    0  0.30043780432E+02  0.42432888571E+02  0.20745970165E+02  0.55978335570E+02  0.00000000000E+00 0. -1.
         -5    1    3    3    0  503 -0.89527069955E+01  0.31677544107E+02  0.18344662312E+01  0.33302748078E+02  0.47000000000E+01 0.  1.
         11    1    4    4    0    0 -0.17980479167E+02  0.38177578912E+01  0.22316419701E+02  0.28911857337E+02  0.00000000000E+00 0. -1.
        -12    1    4    4    0    0  0.11058176745E+02 -0.13646897468E+03  0.16465130812E+03  0.21414041559E+03  0.00000000000E+00 0.  1.
</event>
<event>
12    1  0.1596842E-001  0.1825379E+03  0.7818608E-02  0.1167799E+00
         21   -1    0    0  501  502  0.00000000000E+00  0.00000000000E+00  0.74009036289E+02  0.74009036289E+02  0.00000000000E+00 0. -1.
         21   -1    0    0  502  503 -0.00000000000E+00 -0.00000000000E+00 -0.81692101059E+03  0.81692101059E+03  0.00000000000E+00 0. -1.
         -6    2    1    2    0  503  0.91659413270E+00  0.92816456927E+01 -0.67410634416E+03  0.69585492560E+03  0.17235929087E+03 0.  0.
        -24    2    3    3    0    0  0.29375422784E+02  0.66973708628E+02 -0.42918837133E+03  0.44258593328E+03  0.79569197195E+02 0.  0.
          6    2    1    2  501    0 -0.91659413270E+00 -0.92816456927E+01 -0.68805630147E+02  0.19507512129E+03  0.18229947645E+03 0.  0.
         24    2    5    5    0    0 -0.43838596488E+02  0.49492015046E+02 -0.17639765999E+02  0.10598709102E+03  0.80937136241E+02 0.  0.
          5    1    5    5  501    0  0.42922002356E+02 -0.58773660739E+02 -0.51165864148E+02  0.89088030267E+02  0.47000000000E+01 0. -1.
        -13    1    6    6    0    0 -0.20053729638E+02 -0.12125445289E+02 -0.30737805562E+02  0.38652182172E+02  0.00000000000E+00 0.  1.
         14    1    6    6    0    0 -0.23784866850E+02  0.61617460335E+02  0.13098039563E+02  0.67334908848E+02  0.00000000000E+00 0. -1.
         -5    1    3    3    0  503 -0.28458828651E+02 -0.57692062935E+02 -0.24491797283E+03  0.25326899232E+03  0.47000000000E+01 0.  1.
         13    1    4    4    0    0 -0.23388422514E+02  0.37264385789E+02 -0.23817282000E+03  0.24220228104E+03  0.00000000000E+00 0. -1.
        -14    1    4    4    0    0  0.52763845298E+02  0.29709322839E+02 -0.19101555133E+03  0.20038365224E+03  0.00000000000E+00 0.  1.
</event>
<event>
12    1  0.1596842E-001  0.1913710E+03  0.7818608E-02  0.1157339E+00
         21   -1    0    0  501  502  0.00000000000E+00  0.00000000000E+00  0.10307946539E+03  0.10307946539E+03  0.00000000000E+00 0.  1.
         21   -1    0    0  502  503 -0.00000000000E+00 -0.00000000000E+00 -0.37384337421E+03  0.37384337421E+03  0.00000000000E+00 0. -1.
         -6    2    1    2    0  503 -0.84100826378E+02 -0.10384865583E+01 -0.18962180926E+03  0.26906011142E+03  0.17135601990E+03 0.  0.
        -24    2    3    3    0    0 -0.31155618595E+02 -0.63955831783E+02 -0.95012259284E+02  0.14362150371E+03  0.80862759809E+02 0.  0.
          6    2    1    2  501    0  0.84100826378E+02  0.10384865583E+01 -0.81142099552E+02  0.20786272818E+03  0.17189777775E+03 0.  0.
         24    2    5    5    0    0  0.61718126165E+02  0.23875604311E+02  0.14778222135E+02  0.10664357324E+03  0.82312115052E+02 0.  0.
          5    1    5    5  501    0  0.22382700214E+02 -0.22837117752E+02 -0.95920321688E+02  0.10121915495E+03  0.47000000000E+01 0. -1.
        -11    1    6    6    0    0  0.81451356608E+02  0.23831025199E+02  0.60958177887E+01  0.85084665186E+02  0.00000000000E+00 0.  1.
         12    1    6    6    0    0 -0.19733230443E+02  0.44579111473E-01  0.86824043467E+01  0.21558908049E+02  0.00000000000E+00 0. -1.
         -5    1    3    3    0  503 -0.52945207783E+02  0.62917345225E+02 -0.94609549976E+02  0.12543860771E+03  0.47000000000E+01 0.  1.
         13    1    4    4    0    0  0.19253571376E+02 -0.14690778652E+02 -0.60445762318E+02  0.65116888519E+02  0.00000000000E+00 0. -1.
        -14    1    4    4    0    0 -0.50409189971E+02 -0.49265053131E+02 -0.34566496966E+02  0.78504615190E+02  0.00000000000E+00 0.  1.
</event>
<event>
12    1  0.1596842E-001  0.2054633E+03  0.7818608E-02  0.1145397E+00
         21   -1    0    0  503  502  0.00000000000E+00  0.00000000000E+00  0.71455477808E+02  0.71455477808E+02  0.00000000000E+00 0. -1.
         21   -1    0    0  501  503 -0.00000000000E+00 -0.00000000000E+00 -0.15257874223E+04  0.15257874223E+04  0.00000000000E+00 0. -1.
          6    2    1    2  501    0  0.10466585410E+03  0.36146402333E+02 -0.13525900707E+04  0.13679688945E+04  0.17198108483E+03 0.  0.
         24    2    3    3    0    0  0.11833101947E+03  0.39721468566E+02 -0.70573066969E+03  0.72093822094E+03  0.78205594705E+02 0.  0.
         -6    2    1    2    0  502 -0.10466585410E+03 -0.36146402333E+02 -0.10174187380E+03  0.22927400562E+03  0.17307124935E+03 0.  0.
        -24    2    5    5    0    0 -0.10952740766E+03 -0.81538306922E+02 -0.66302331605E+02  0.17129029363E+03  0.79370126555E+02 0.  0.
          5    1    3    3  501    0 -0.13665165377E+02 -0.35750662327E+01 -0.64685940100E+03  0.64703067355E+03  0.47000000000E+01 0. -1.
        -11    1    4    4    0    0  0.39945742818E+02 -0.14272699540E+02 -0.11470352297E+03  0.12229583191E+03  0.00000000000E+00 0.  1.
         12    1    4    4    0    0  0.78385276654E+02  0.53994168106E+02 -0.59102714672E+03  0.59864238903E+03  0.00000000000E+00 0. -1.
         -5    1    5    5    0  502  0.48615535688E+01  0.45391904590E+02 -0.35439542194E+02  0.57983711991E+02  0.47000000000E+01 0.  1.
         11    1    6    6    0    0 -0.46933087938E+02  0.66162466347E+01 -0.34399674685E+02  0.58564725572E+02  0.00000000000E+00 0. -1.
        -12    1    6    6    0    0 -0.62594319726E+02 -0.88154553557E+02 -0.31902656921E+02  0.11272556806E+03  0.00000000000E+00 0.  1.
</event>
<event>
12    1  0.1596842E-001  0.2489399E+03  0.7818608E-02  0.1113977E+00
         21   -1    0    0  503  502  0.00000000000E+00  0.00000000000E+00  0.37732282066E+03  0.37732282066E+03  0.00000000000E+00 0. -1.
         21   -1    0    0  501  503 -0.00000000000E+00 -0.00000000000E+00 -0.21432478671E+03  0.21432478671E+03  0.00000000000E+00 0.  1.
          6    2    1    2  501    0  0.74826223088E+01 -0.18043179986E+03 -0.61509785784E+02  0.25642642110E+03  0.17134594145E+03 0.  0.
         24    2    3    3    0    0  0.81163298496E+01 -0.13312891628E+03 -0.10864157003E+03  0.18948271738E+03  0.79445114946E+02 0.  0.
         -6    2    1    2    0  502 -0.74826223088E+01  0.18043179986E+03  0.22450781973E+03  0.33522118627E+03  0.17134135102E+03 0.  0.
        -24    2    5    5    0    0 -0.26669049726E+02  0.36776666781E+02  0.40217372571E+02  0.10072177226E+03  0.80396995704E+02 0.  0.
          5    1    3    3  501    0 -0.63370754081E+00 -0.47302883582E+02  0.47131784248E+02  0.66943703713E+02  0.47000000000E+01 0. -1.
        -13    1    4    4    0    0 -0.28500816633E+02 -0.26860646270E+02 -0.47384259686E+02  0.61474050890E+02  0.00000000000E+00 0.  1.
         14    1    4    4    0    0  0.36617146483E+02 -0.10626827001E+03 -0.61257310345E+02  0.12800866649E+03  0.00000000000E+00 0. -1.
         -5    1    5    5    0  502  0.19186427417E+02  0.14365513308E+03  0.18429044716E+03  0.23449941401E+03  0.47000000000E+01 0.  1.
         13    1    6    6    0    0 -0.46087818831E+02 -0.36942422748E+01  0.28556177313E+02  0.54343258398E+02  0.00000000000E+00 0. -1.
        -14    1    6    6    0    0  0.19418769105E+02  0.40470909056E+02  0.11661195258E+02  0.46378513864E+02  0.00000000000E+00 0.  1.
</event>
<event>
12    1  0.1596842E-001  0.3032396E+03  0.7818608E-02  0.1083665E+00
         21   -1    0    0  503  502  0.00000000000E+00  0.00000000000E+00  0.60869969268E+03  0.60869969268E+03  0.00000000000E+00 0. -1.
         21   -1    0    0  501  503 -0.00000000000E+00 -0.00000000000E+00 -0.36686788732E+03  0.36686788732E+03  0.00000000000E+00 0.  1.
          6    2    1    2  501    0  0.24933414926E+03  0.46867483711E+01 -0.25328571246E+03  0.39510496039E+03  0.17252476341E+03 0.  0.
         24    2    3    3    0    0  0.26271765204E+03  0.42146139939E+00 -0.26054604609E+03  0.37860910442E+03  0.80248797423E+02 0.  0.
         -6    2    1    2    0  502 -0.24933414926E+03 -0.46867483711E+01  0.49511751782E+03  0.58046261961E+03  0.17206397855E+03 0.  0.
        -24    2    5    5    0    0 -0.19912848319E+03  0.58293834906E+02  0.32653608688E+03  0.39356973148E+03  0.72256442595E+02 0.  0.
          5    1    3    3  501    0 -0.13383502785E+02  0.42652869717E+01  0.72603336325E+01  0.16495855971E+02  0.47000000000E+01 0. -1.
        -11    1    4    4    0    0 -0.94206291259E+00 -0.68336799699E+01 -0.21724396035E+02  0.22793333402E+02  0.00000000000E+00 0.  1.
         12    1    4    4    0    0  0.26365971496E+03  0.72551413693E+01 -0.23882165006E+03  0.35581577102E+03  0.00000000000E+00 0. -1.
         -5    1    5    5    0  502 -0.50205666066E+02 -0.62980583277E+02  0.16858143094E+03  0.18689288813E+03  0.47000000000E+01 0.  1.
         13    1    6    6    0    0 -0.13889914403E+03  0.74037257936E+02  0.23793322458E+03  0.28528355567E+03  0.00000000000E+00 0. -1.
        -14    1    6    6    0    0 -0.60229339166E+02 -0.15743423029E+02  0.88602862301E+02  0.10828617582E+03  0.00000000000E+00 0.  1.
</event>
<event>
12    1  0.1596842E-001  0.3689987E+03  0.7818608E-02  0.1055611E+00
         21   -1    0    0  501  502  0.00000000000E+00  0.00000000000E+00  0.98646830503E+02  0.98646830503E+02  0.00000000000E+00 0.  1.
         21   -1    0    0  502  503 -0.00000000000E+00 -0.00000000000E+00 -0.14378073751E+04  0.14378073751E+04  0.00000000000E+00 0. -1.
         -6    2    1    2    0  503  0.70747116790E+02  0.31229615927E+03 -0.48574837748E+03  0.60668414867E+03  0.17198873333E+03 0.  0.
        -24    2    3    3    0    0  0.99805187561E+02  0.25274956521E+03 -0.44878080138E+03  0.53066533505E+03  0.79737519156E+02 0.  0.
          6    2    1    2  501    0 -0.70747116790E+02 -0.31229615927E+03 -0.85341216716E+03  0.92977005698E+03  0.18337389719E+03 0.  0.
         24    2    5    5    0    0 -0.20937684226E+02 -0.30465186870E+03 -0.76868387068E+03  0.83107664801E+03  0.81008358149E+02 0.  0.
          5    1    5    5  501    0 -0.49809432564E+02 -0.76442905683E+01 -0.84728296479E+02  0.98693408974E+02  0.47000000000E+01 0. -1.
        -11    1    6    6    0    0 -0.90031614407E+01 -0.28595860331E+01 -0.71837829114E+01  0.11867640251E+02  0.00000000000E+00 0.  1.
         12    1    6    6    0    0 -0.11934522785E+02 -0.30179228267E+03 -0.76150008777E+03  0.81920900776E+03  0.00000000000E+00 0. -1.
         -5    1    3    3    0  503 -0.29058070771E+02  0.59546594061E+02 -0.36967576108E+02  0.76018813622E+02  0.47000000000E+01 0.  1.
         11    1    4    4    0    0  0.20403078632E+02  0.71604736851E+01 -0.62091669351E+02  0.65749018273E+02  0.00000000000E+00 0. -1.
        -12    1    4    4    0    0  0.79402108928E+02  0.24558909153E+03 -0.38668913203E+03  0.46491631678E+03  0.00000000000E+00 0.  1.
</event>
<event>
12    1  0.1596842E-001  0.2131906E+03  0.7818608E-02  0.1139132E+00
         21   -1    0    0  501  502  0.00000000000E+00  0.00000000000E+00  0.49545719111E+03  0.49545719111E+03  0.00000000000E+00 0.  1.
         21   -1    0    0  502  503 -0.00000000000E+00 -0.00000000000E+00 -0.38594081225E+03  0.38594081225E+03  0.00000000000E+00 0. -1.
         -6    2    1    2    0  503  0.12597838900E+03  0.67323519800E+01 -0.33012690736E+03  0.39279135558E+03  0.17142168764E+03 0.  0.
        -24    2    3    3    0    0  0.13212803264E+03 -0.35275587633E+02 -0.30412671645E+03  0.34278550557E+03  0.79414476517E+02 0.  0.
          6    2    1    2  501    0 -0.12597838900E+03 -0.67323519800E+01  0.43964328621E+03  0.48860664779E+03  0.17185563154E+03 0.  0.
         24    2    5    5    0    0 -0.84604127394E+02  0.32577334321E+02  0.40216314001E+03  0.42016738771E+03  0.81156031373E+02 0.  0.
          5    1    5    5  501    0 -0.41374261609E+02 -0.39309686301E+02  0.37480146198E+02  0.68439260077E+02  0.47000000000E+01 0. -1.
        -13    1    6    6    0    0 -0.78271285802E+02  0.36332543650E+02  0.19940802730E+03  0.21727864428E+03  0.00000000000E+00 0.  1.
         14    1    6    6    0    0 -0.63328415922E+01 -0.37552093291E+01  0.20275511271E+03  0.20288874343E+03  0.00000000000E+00 0. -1.
         -5    1    3    3    0  503 -0.61496436360E+01  0.42007939613E+02 -0.26000190911E+02  0.50005850006E+02  0.47000000000E+01 0.  1.
         13    1    4    4    0    0  0.13322838965E+00 -0.25782168289E+02 -0.47434334054E+02  0.53988461718E+02  0.00000000000E+00 0. -1.
        -14    1    4    4    0    0  0.13199480425E+03 -0.94934193442E+01 -0.25669238239E+03  0.28879704385E+03  0.00000000000E+00 0.  1.
</event>
<event>
12    1  0.1596842E-001  0.1814155E+03  0.7818608E-02  0.1167091E+00
         21   -1    0    0  501  502  0.00000000000E+00  0.00000000000E+00  0.59630927261E+02  0.59630927261E+02  0.00000000000E+00 0.  1.
         21   -1    0    0  502  503 -0.00000000000E+00 -0.00000000000E+00 -0.68383307987E+03  0.68383307987E+03  0.00000000000E+00 0.  1.
         -6    2    1    2    0  503  0.42200022639E+02  0.14068992141E+02 -0.47848823043E+03  0.51077511735E+03  0.17309377628E+03 0.  0.
        -24    2    3    3    0    0  0.25101380636E+02  0.77233349567E+02 -0.32656339774E+03  0.34528993857E+03  0.77371954456E+02 0.  0.
          6    2    1    2  501    0 -0.42200022639E+02 -0.14068992141E+02 -0.14571392218E+03  0.23268888978E+03  0.17587721246E+03 0.  0.
         24    2    5    5    0    0 -0.31440192209E+02 -0.53410440744E+02 -0.30248982526E+02  0.11014189546E+03  0.85878258745E+02 0.  0.
          5    1    5    5  501    0 -0.10759830429E+02  0.39341448603E+02 -0.11546493965E+03  0.12254699432E+03  0.47000000000E+01 0. -1.
        -13    1    6    6    0    0 -0.23572021721E+02  0.15293074185E+02  0.10359879049E+02  0.29947377514E+02  0.00000000000E+00 0.  1.
         14    1    6    6    0    0 -0.78681704883E+01 -0.68703514928E+02 -0.40608861575E+02  0.80194517947E+02  0.00000000000E+00 0. -1.
         -5    1    3    3    0  503  0.17098642003E+02 -0.63164357427E+02 -0.15192483269E+03  0.16548517878E+03  0.47000000000E+01 0.  1.
         13    1    4    4    0    0  0.17231569824E+02 -0.33402192971E+01 -0.14114971250E+02  0.22523687019E+02  0.00000000000E+00 0. -1.
        -14    1    4    4    0    0  0.78698108125E+01  0.80573568865E+02 -0.31244842649E+03  0.32276625155E+03  0.00000000000E+00 0.  1.
</event>
<event>
12    1  0.1596842E-001  0.2426019E+03  0.7818608E-02  0.1118119E+00
         21   -1    0    0  503  502  0.00000000000E+00  0.00000000000E+00  0.94780992077E+03  0.94780992077E+03  0.00000000000E+00 0.  1.
         21   -1    0    0  501  503 -0.00000000000E+00 -0.00000000000E+00 -0.64338010190E+02  0.64338010190E+02  0.00000000000E+00 0. -1.
          6    2    1    2  501    0 -0.61845310238E+02 -0.15912823059E+03  0.34599660863E+03  0.42257462191E+03  0.17236305209E+03 0.  0.
         24    2    3    3    0    0 -0.25382909229E+01 -0.72925734526E+02  0.27857497882E+03  0.29801154939E+03  0.76695886933E+02 0.  0.
         -6    2    1    2    0  502  0.61845310238E+02  0.15912823059E+03  0.53747530195E+03  0.58957330906E+03  0.17196031628E+03 0.  0.
        -24    2    5    5    0    0  0.67114732753E+02  0.14431818713E+03  0.28072024616E+03  0.33229456358E+03  0.79269753945E+02 0.  0.
          5    1    3    3  501    0 -0.59307019315E+02 -0.86202496060E+02  0.67421629818E+02  0.12456307251E+03  0.47000000000E+01 0. -1.
        -11    1    4    4    0    0 -0.34335167027E+02 -0.27045933783E+02  0.73870928121E+02  0.85832978805E+02  0.00000000000E+00 0.  1.
         12    1    4    4    0    0  0.31796876104E+02 -0.45879800743E+02  0.20470405070E+03  0.21217857059E+03  0.00000000000E+00 0. -1.
         -5    1    5    5    0  502 -0.52694225152E+01  0.14810043457E+02  0.25675505579E+03  0.25727874548E+03  0.47000000000E+01 0.  1.
         13    1    6    6    0    0 -0.16943526119E+02  0.39869564557E+02  0.59123127346E+02  0.73295357578E+02  0.00000000000E+00 0. -1.
        -14    1    6    6    0    0  0.84058258872E+02  0.10444862257E+03  0.22159711882E+03  0.25899920600E+03  0.00000000000E+00 0.  1.
</event>
<event>
12    1  0.1596842E-001  0.3082660E+03  0.7818608E-02  0.1081237E+00
         21   -1    0    0  503  502  0.00000000000E+00  0.00000000000E+00  0.73707721570E+03  0.73707721570E+03  0.00000000000E+00 0.  1.
         21   -1    0    0  501  503 -0.00000000000E+00 -0.00000000000E+00 -0.19589222846E+03  0.19589222846E+03  0.00000000000E+00 0.  1.
          6    2    1    2  501    0 -0.22770608595E+03 -0.11514560061E+03  0.54387718989E+03  0.62516423887E+03  0.17297212770E+03 0.  0.
         24    2    3    3    0    0 -0.78958303328E+02 -0.11146278845E+02  0.12314593649E+03  0.16692997634E+03  0.79636939499E+02 0.  0.
         -6    2    1    2    0  502  0.22770608595E+03  0.11514560061E+03 -0.26922026466E+01  0.30780520530E+03  0.17212851459E+03 0.  0.
        -24    2    5    5    0    0  0.12083024243E+03  0.60064644210E+02 -0.66587692393E+02  0.17156614593E+03  0.82421554718E+02 0.  0.
          5    1    3    3  501    0 -0.14874778262E+03 -0.10399932177E+03  0.42073125340E+03  0.45823426252E+03  0.47000000000E+01 0. -1.
        -13    1    4    4    0    0 -0.23433625587E+02 -0.30510147623E+02  0.93437144363E+02  0.10104703787E+03  0.00000000000E+00 0.  1.
         14    1    4    4    0    0 -0.55524677740E+02  0.19363868778E+02  0.29708792123E+02  0.65882938472E+02  0.00000000000E+00 0. -1.
         -5    1    5    5    0  502  0.10687584352E+03  0.55080956405E+02  0.63895489747E+02  0.13623905936E+03  0.47000000000E+01 0.  1.
         13    1    6    6    0    0  0.18326924802E+02  0.33375631930E+02 -0.52290559691E+02  0.64684709261E+02  0.00000000000E+00 0. -1.
        -14    1    6    6    0    0  0.10250331763E+03  0.26689012280E+02 -0.14297132703E+02  0.10688143667E+03  0.00000000000E+00 0.  1.
</event>
<event>
12    1  0.1596842E-001  0.2369317E+03  0.7818608E-02  0.1122352E+00
         21   -1    0    0  501  502  0.00000000000E+00  0.00000000000E+00  0.45534051355E+03  0.45534051355E+03  0.00000000000E+00 0. -1.
         21   -1    0    0  502  503 -0.00000000000E+00 -0.00000000000E+00 -0.12179296369E+03  0.12179296369E+03  0.00000000000E+00 0.  1.
         -6    2    1    2    0  503 -0.59124785735E+02  0.15177082471E+03  0.16175723523E+03  0.28447573745E+03  0.16802058959E+03 0.  0.
        -24    2    3    3    0    0 -0.93028488885E+02  0.75887451014E+02  0.13352771344E+03  0.19657384105E+03  0.79990122897E+02 0.  0.
          6    2    1    2  501    0  0.59124785735E+02 -0.15177082471E+03  0.17179031463E+03  0.29265773979E+03  0.17206544377E+03 0.  0.
         24    2    5    5    0    0  0.84554095932E+02 -0.12968412747E+03  0.18668450761E+03  0.25553094359E+03  0.80483474658E+02 0.  0.
          5    1    5    5  501    0 -0.25429310198E+02 -0.22086697241E+02 -0.14894192977E+02  0.37126796207E+02  0.47000000000E+01 0. -1.
        -13    1    6    6    0    0  0.72944883770E+02 -0.11919101386E+03  0.11160586033E+03  0.17883881546E+03  0.00000000000E+00 0.  1.
         14    1    6    6    0    0  0.11609212162E+02 -0.10493113609E+02  0.75078647277E+02  0.76692128131E+02  0.00000000000E+00 0. -1.
         -5    1    3    3    0  503  0.33903703151E+02  0.75883373698E+02  0.28229521788E+02  0.87901896405E+02  0.47000000000E+01 0.  1.
         13    1    4    4    0    0 -0.49651849318E+02  0.86300231141E+02  0.88986604243E+02  0.13353520798E+03  0.00000000000E+00 0. -1.
        -14    1    4    4    0    0 -0.43376639567E+02 -0.10412780127E+02  0.44541109200E+02  0.63038633066E+02  0.00000000000E+00 0.  1.
</event>
<event>
12    1  0.1596842E-001  0.2119696E+03  0.7818608E-02  0.1140800E+00
         21   -1    0    0  503  502  0.00000000000E+00  0.00000000000E+00  0.18021399921E+04  0.18021399921E+04  0.00000000000E+00 0. -1.
         21   -1    0    0  501  503 -0.00000000000E+00 -0.00000000000E+00 -0.26813027340E+02  0.26813027340E+02  0.00000000000E+00 0. -1.
          6    2    1    2  501    0 -0.63884158686E+02 -0.97154586172E+02  0.62484507666E+03  0.65982003762E+03  0.17723124125E+03 0.  0.
         24    2    3    3    0    0 -0.49714136982E+02 -0.71603795039E+02  0.18891039717E+03  0.22288209326E+03  0.79941794174E+02 0.  0.
         -6    2    1    2    0  502  0.63884158686E+02  0.97154586172E+02  0.11504818881E+04  0.11691329818E+04  0.17246203926E+03 0.  0.
        -24    2    5    5    0    0  0.33255280650E+01  0.17829928761E+02  0.25158899479E+03  0.26470483506E+03  0.80266194038E+02 0.  0.
          5    1    3    3  501    0 -0.14170021704E+02 -0.25550791133E+02  0.43593467949E+03  0.43693794437E+03  0.47000000000E+01 0. -1.
        -11    1    4    4    0    0 -0.67897706835E+01  0.89244999839E+00  0.10058643412E+03  0.10081928477E+03  0.00000000000E+00 0.  1.
         12    1    4    4    0    0 -0.42924366299E+02 -0.72496245038E+02  0.88323963055E+02  0.12206280849E+03  0.00000000000E+00 0. -1.
         -5    1    5    5    0  502  0.60558630621E+02  0.79324657412E+02  0.89889289332E+03  0.90442814677E+03  0.47000000000E+01 0.  1.
         11    1    6    6    0    0 -0.14140783485E+02 -0.13098037519E+02  0.20606086168E+03  0.20696038041E+03  0.00000000000E+00 0. -1.
        -12    1    6    6    0    0  0.17466311550E+02  0.30927966280E+02  0.45528133111E+02  0.57744454643E+02  0.00000000000E+00 0.  1.
</event>
<event>
12    1  0.1596842E-001  0.2254844E+03  0.7818608E-02  0.1130103E+00
         21   -1    0    0  503  502  0.00000000000E+00  0.00000000000E+00  0.92624370307E+03  0.92624370307E+03  0.00000000000E+00 0. -1.
         21   -1    0    0  501  503 -0.00000000000E+00 -0.00000000000E+00 -0.87073211151E+02  0.87073211151E+02  0.00000000000E+00 0.  1.
          6    2    1    2  501    0  0.10205445115E+03  0.10599251040E+03  0.11079419499E+03  0.25123412290E+03  0.17086166219E+03 0.  0.
         24    2    3    3    0    0  0.10544907642E+02  0.15327079255E+02 -0.14184839316E+01  0.80330663989E+02  0.78133789391E+02 0.  0.
         -6    2    1    2    0  502 -0.10205445115E+03 -0.10599251040E+03  0.72837629692E+03  0.76208279131E+03  0.16908171883E+03 0.  0.
        -24    2    5    5    0    0 -0.32884388189E+02 -0.10763165674E+03  0.61655755579E+03  0.63050503758E+03  0.68756281814E+02 0.  0.
          5    1    3    3  501    0  0.91509543504E+02  0.90665431145E+02  0.11221267892E+03  0.17090345891E+03  0.47000000000E+01 0. -1.
        -13    1    4    4    0    0  0.14292496154E+02 -0.10901159910E+02 -0.33925975915E+02  0.38393783032E+02  0.00000000000E+00 0.  1.
         14    1    4    4    0    0 -0.37475885122E+01  0.26228239165E+02  0.32507491984E+02  0.41936880957E+02  0.00000000000E+00 0. -1.
         -5    1    5    5    0  502 -0.69170062957E+02  0.16391463432E+01  0.11181874113E+03  0.13157775374E+03  0.47000000000E+01 0.  1.
         13    1    6    6    0    0 -0.28049833686E+01 -0.82387036781E+02  0.28662702646E+03  0.29824577794E+03  0.00000000000E+00 0. -1.
        -14    1    6    6    0    0 -0.30079404821E+02 -0.25244619962E+02  0.32993052933E+03  0.33225925964E+03  0.00000000000E+00 0.  1.
</event>
<event>
12    1  0.1596842E-001  0.2592443E+03  0.7818608E-02  0.1107680E+00
         21   -1    0    0  503  502  0.00000000000E+00  0.00000000000E+00  0.15797299427E+04  0.15797299427E+04  0.00000000000E+00 0. -1.
         21   -1    0    0  501  503 -0.00000000000E+00 -0.00000000000E+00 -0.49307518348E+02  0.49307518348E+02  0.00000000000E+00 0.  1.
          6    2    1    2  501    0  0.10809302066E+03  0.16085517555E+03  0.46087515837E+03  0.52851986887E+03  0.17137342725E+03 0.  0.
         24    2    3    3    0    0  0.27747053861E+02  0.24470269043E+02  0.10788206759E+03  0.14163160432E+03  0.83977840948E+02 0.  0.
         -6    2    1    2    0  502 -0.10809302066E+03 -0.16085517555E+03  0.10695472660E+04  0.11005175922E+04  0.17218922124E+03 0.  0.
        -24    2    5    5    0    0 -0.79455481039E+02 -0.13634198874E+03  0.10323820237E+04  0.10473729759E+04  0.79216137742E+02 0.  0.
          5    1    3    3  501    0  0.80345966800E+02  0.13638490651E+03  0.35299309078E+03  0.38688826454E+03  0.47000000000E+01 0. -1.
        -11    1    4    4    0    0 -0.53180515888E+01  0.49091015389E+02  0.47479556006E+02  0.68501954010E+02  0.00000000000E+00 0.  1.
         12    1    4    4    0    0  0.33065105450E+02 -0.24620746346E+02  0.60402511588E+02  0.73129650315E+02  0.00000000000E+00 0. -1.
         -5    1    5    5    0  502 -0.28637539623E+02 -0.24513186814E+02  0.37165242291E+02  0.53144616265E+02  0.47000000000E+01 0.  1.
         13    1    6    6    0    0 -0.34697604333E+02 -0.10282745164E+03  0.84152735549E+03  0.84849613941E+03  0.00000000000E+00 0. -1.
        -14    1    6    6    0    0 -0.44757876705E+02 -0.33514537096E+02  0.19085466819E+03  0.19887683649E+03  0.00000000000E+00 0.  1.
</event>
<event>
12    1  0.1596842E-001  0.1781155E+03  0.7818608E-02  0.1169750E+00
         21   -1    0    0  503  502  0.00000000000E+00  0.00000000000E+00  0.51755240821E+03  0.51755240821E+03  0.00000000000E+00 0.  1.
         21   -1    0    0  501  503 -0.00000000000E+00 -0.00000000000E+00 -0.72322875786E+02  0.72322875786E+02  0.00000000000E+00 0.  1.
          6    2    1    2  501    0 -0.40703806580E+02 -0.22817250861E+00  0.10642345837E+03  0.20710289986E+03  0.17294162803E+03 0.  0.
         24    2    3    3    0    0 -0.89202825117E+02 -0.25711264298E+02  0.82583304526E+02  0.14716972289E+03  0.78871490595E+02 0.  0.
         -6    2    1    2    0  502  0.40703806580E+02  0.22817250861E+00  0.33880607405E+03  0.38277238413E+03  0.17340210584E+03 0.  0.
        -24    2    5    5    0    0 -0.20157538225E+02 -0.40406698269E+02  0.60129251828E+02  0.94608963035E+02  0.57413424814E+02 0.  0.
          5    1    3    3  501    0  0.48499018537E+02  0.25483091789E+02  0.23840153844E+02  0.59933176969E+02  0.47000000000E+01 0. -1.
        -11    1    4    4    0    0 -0.21085275984E+02 -0.35285562076E+02  0.19075603845E+01  0.41149708881E+02  0.00000000000E+00 0.  1.
         12    1    4    4    0    0 -0.68117549133E+02  0.95742977784E+01  0.80675744142E+02  0.10602001401E+03  0.00000000000E+00 0. -1.
         -5    1    5    5    0  502  0.60861344805E+02  0.40634870777E+02  0.27867682222E+03  0.28816342110E+03  0.47000000000E+01 0.  1.
         11    1    6    6    0    0 -0.19422408595E+02  0.10535333883E+02  0.18081166922E+02  0.28550863611E+02  0.00000000000E+00 0. -1.
        -12    1    6    6    0    0 -0.73512963030E+00 -0.50942032152E+02  0.42048084906E+02  0.66058099424E+02  0.00000000000E+00 0.  1.
</event>
<event>
12    1  0.1596842E-001  0.1906792E+03  0.7818608E-02  0.1158389E+00
         21   -1    0    0  501  502  0.00000000000E+00  0.00000000000E+00  0.80839020347E+02  0.80839020347E+02  0.00000000000E+00 0. -1.
         21   -1    0    0  502  503 -0.00000000000E+00 -0.00000000000E+00 -0.45026536665E+03  0.45026536665E+03  0.00000000000E+00 0. -1.
         -6    2    1    2    0  503  0.59880243094E+02  0.39470767713E+02 -0.15492862408E+03  0.24568567269E+03  0.17667763353E+03 0.  0.
        -24    2    3    3    0    0 -0.89227064820E+01  0.67164395492E+02 -0.46745694911E+02  0.11443621915E+03  0.79497280134E+02 0.  0.
          6    2    1    2  501    0 -0.59880243094E+02 -0.39470767713E+02 -0.21449772223E+03  0.28541871431E+03  0.17410050150E+03 0.  0.
         24    2    5    5    0    0  0.63861990469E+01 -0.67530756899E+02 -0.17307164048E+03  0.20225132529E+03  0.79690772230E+02 0.  0.
          5    1    5    5  501    0 -0.66266442141E+02  0.28059989186E+02 -0.41426081746E+02  0.83167389017E+02  0.47000000000E+01 0. -1.
        -13    1    6    6    0    0 -0.26631206645E+02 -0.23429004017E+02 -0.22716979441E+02  0.42121260089E+02  0.00000000000E+00 0.  1.
         14    1    6    6    0    0  0.33017405692E+02 -0.44101752882E+02 -0.15035466104E+03  0.16013006521E+03  0.00000000000E+00 0. -1.
         -5    1    3    3    0  503  0.68802949576E+02 -0.27693627779E+02 -0.10818292917E+03  0.13124945353E+03  0.47000000000E+01 0.  1.
         13    1    4    4    0    0 -0.42191476689E+02  0.47285422069E+02 -0.17089852304E+02  0.65636079234E+02  0.00000000000E+00 0. -1.
        -14    1    4    4    0    0  0.33268770207E+02  0.19878973423E+02 -0.29655842608E+02  0.48800139920E+02  0.00000000000E+00 0.  1.
</event>
<event>
12    1  0.1596842E-001  0.2303090E+03  0.7818608E-02  0.1126550E+00
         21   -1    0    0  501  502  0.00000000000E+00  0.00000000000E+00  0.43269587754E+03  0.43269587754E+03  0.00000000000E+00 0.  1.
         21   -1    0    0  502  503 -0.00000000000E+00 -0.00000000000E+00 -0.19600959667E+03  0.19600959667E+03  0.00000000000E+00 0.  1.
         -6    2    1    2    0  503 -0.44990652928E+02  0.14640775351E+03 -0.74441522243E+02  0.24204087277E+03  0.17199667066E+03 0.  0.
        -24    2    3    3    0    0 -0.18552846135E+01  0.59882439962E+02  0.22715158158E+02  0.10489569265E+03  0.83052870087E+02 0.  0.
          6    2    1    2  501    0  0.44990652928E+02 -0.14640775351E+03  0.31112780312E+03  0.38666460144E+03  0.17102518818E+03 0.  0.
         24    2    5    5    0    0 -0.16595831098E+02 -0.14228969466E+03  0.25674955638E+03  0.30426959466E+03  0.78344576828E+02 0.  0.
          5    1    5    5  501    0  0.61586484026E+02 -0.41180588536E+01  0.54378246736E+02  0.82395006775E+02  0.47000000000E+01 0. -1.
        -11    1    6    6    0    0  0.31641424705E+02 -0.57025604588E+02  0.97459082245E+02  0.11726624428E+03  0.00000000000E+00 0.  1.
         12    1    6    6    0    0 -0.48237255803E+02 -0.85264090067E+02  0.15929047414E+03  0.18700335038E+03  0.00000000000E+00 0. -1.
         -5    1    3    3    0  503 -0.43135368314E+02  0.86525313547E+02 -0.97156680401E+02  0.13714518012E+03  0.47000000000E+01 0.  1.
         13    1    4    4    0    0  0.73884468113E+01 -0.73636565908E+01  0.34463919802E+02  0.36007976239E+02  0.00000000000E+00 0. -1.
        -14    1    4    4    0    0 -0.92437314248E+01  0.67246096553E+02 -0.11748761644E+02  0.68887716412E+02  0.00000000000E+00 0.  1.
</event>
<event>
12    1  0.1596842E-001  0.1797474E+03  0.7818608E-02  0.1168245E+00
         21   -1    0    0  501  502  0.00000000000E+00  0.00000000000E+00  0.34052762930E+02  0.34052762930E+02  0.00000000000E+00 0. -1.
         21   -1    0    0  502  503 -0.00000000000E+00 -0.00000000000E+00 -0.94454861781E+03  0.94454861781E+03  0.00000000000E+00 0. -1.
         -6    2    1    2    0  503  0.27868501577E+02  0.42064807547E+02 -0.45939627153E+03  0.49330928894E+03  0.17251961873E+03 0.  0.
        -24    2    3    3    0    0 -0.33351174287E+02  0.68715907844E+02 -0.29866006286E+03  0.31919338318E+03  0.82779260114E+02 0.  0.
          6    2    1    2  501    0 -0.27868501577E+02 -0.42064807547E+02 -0.45109958335E+03  0.48529209180E+03  0.17167259201E+03 0.  0.
         24    2    5    5    0    0 -0.57610231878E+02 -0.40823175740E+01 -0.14534200488E+03  0.17571653259E+03  0.80102417625E+02 0.  0.
          5    1    5    5  501    0  0.29741730301E+02 -0.37982489973E+02 -0.30575757847E+03  0.30957555921E+03  0.47000000000E+01 0. -1.
        -13    1    6    6    0    0 -0.69956921606E+02  0.12126193808E+02 -0.13575009173E+03  0.15319628867E+03  0.00000000000E+00 0.  1.
         14    1    6    6    0    0  0.12346689728E+02 -0.16208511382E+02 -0.95919131488E+01  0.22520243922E+02  0.00000000000E+00 0. -1.
         -5    1    3    3    0  503  0.61219675863E+02 -0.26651100297E+02 -0.16073620867E+03  0.17411590576E+03  0.47000000000E+01 0.  1.
         11    1    4    4    0    0  0.17931846770E+02  0.50750185639E+02 -0.10415745416E+03  0.11724294319E+03  0.00000000000E+00 0. -1.
        -12    1    4    4    0    0 -0.51283021057E+02  0.17965722204E+02 -0.19450260869E+03  0.20195043999E+03  0.00000000000E+00 0.  1.
</event>
<event>
12    1  0.1596842E-001  0.1894091E+03  0.7818608E-02  0.1159149E+00
         21   -1    0    0  503  502  0.00000000000E+00  0.00000000000E+00  0.16415041965E+03  0.16415041965E+03  0.00000000000E+00 0. -1.
         21   -1    0    0  501  503 -0.00000000000E+00 -0.00000000000E+00 -0.24466735830E+03  0.24466735830E+03  0.00000000000E+00 0. -1.
          6    2    1    2  501    0  0.40532676715E+02  0.65399083305E+02 -0.10808955733E+03  0.21808061411E+03  0.17307762382E+03 0.  0.
         24    2    3    3    0    0  0.62111441241E+02  0.13809803216E+02 -0.43710352497E+02  0.13267646366E+03  0.10790693813E+03 0.  0.
         -6    2    1    2    0  502 -0.40532676715E+02 -0.65399083305E+02  0.27572618681E+02  0.19073716384E+03  0.17233826734E+03 0.  0.
        -24    2    5    5    0    0  0.27730519798E+02 -0.38170447004E+02  0.59891711270E+02  0.11031405535E+03  0.79725836321E+02 0.  0.
          5    1    3    3  501    0 -0.21578764526E+02  0.51589280088E+02 -0.64379204829E+02  0.85404150443E+02  0.47000000000E+01 0. -1.
        -13    1    4    4    0    0 -0.27874188441E+02  0.13999997565E+02  0.29155385228E+01  0.31328432421E+02  0.00000000000E+00 0.  1.
         14    1    4    4    0    0  0.89985629682E+02 -0.19019434900E+00 -0.46625891020E+02  0.10134803124E+03  0.00000000000E+00 0. -1.
         -5    1    5    5    0  502 -0.68263196512E+02 -0.27228636301E+02 -0.32319092589E+02  0.80423108487E+02  0.47000000000E+01 0.  1.
         11    1    6    6    0    0 -0.22267764673E+02 -0.94866169334E+01  0.44493341363E+02  0.50650830891E+02  0.00000000000E+00 0. -1.
        -12    1    6    6    0    0  0.49998284470E+02 -0.28683830070E+02  0.15398369908E+02  0.59663224463E+02  0.00000000000E+00 0.  1.
</event>
<event>
12    1  0.1596842E-001  0.2839203E+03  0.7818608E-02  0.1094388E+00
         21   -1    0    0  503  502  0.00000000000E+00  0.00000000000E+00  0.36527658473E+03  0.36527658473E+03  0.00000000000E+00 0.  1.
         21   -1    0    0  501  503 -0.00000000000E+00 -0.00000000000E+00 -0.54774878244E+03  0.54774878244E+03  0.00000000000E+00 0.  1.
          6    2    1    2  501    0 -0.21591258795E+03 -0.18322926744E+02 -0.44611438661E+03  0.52557481523E+03  0.17394500620E+03 0.  0.
         24    2    3    3    0    0 -0.11143375584E+03  0.30374801998E+02 -0.34525028834E+03  0.37233333435E+03  0.78065611694E+02 0.  0.
         -6    2    1    2    0  502  0.21591258795E+03  0.18322926744E+02  0.26364218891E+03  0.38745055194E+03  0.18345776392E+03 0.  0.
        -24    2    5    5    0    0  0.23489051045E+03  0.35338473386E+02  0.24546111741E+03  0.35579092890E+03  0.99567390902E+02 0.  0.
          5    1    3    3  501    0 -0.10447883211E+03 -0.48697728743E+02 -0.10086409827E+03  0.15324148088E+03  0.47000000000E+01 0. -1.
        -11    1    4    4    0    0 -0.83000287806E+02 -0.15108795561E+02 -0.23598722297E+03  0.25061383219E+03  0.00000000000E+00 0.  1.
         12    1    4    4    0    0 -0.28433468035E+02  0.45483597560E+02 -0.10926306537E+03  0.12171950216E+03  0.00000000000E+00 0. -1.
         -5    1    5    5    0  502 -0.18977922496E+02 -0.17015546642E+02  0.18181071498E+02  0.31659623033E+02  0.47000000000E+01 0.  1.
         13    1    6    6    0    0  0.96085223520E+01  0.26539622408E+02  0.10382969252E+02  0.30074595756E+02  0.00000000000E+00 0. -1.
        -14    1    6    6    0    0  0.22528198810E+03  0.87988509777E+01  0.23507814816E+03  0.32571633315E+03  0.00000000000E+00 0.  1.
</event>
<event>
12    1  0.1596842E-001  0.1820111E+03  0.7818608E-02  0.1165923E+00
         21   -1    0    0  503  502  0.00000000000E+00  0.00000000000E+00  0.23199787132E+04  0.23199787132E+04  0.00000000000E+00 0. -1.
         21   -1    0    0  501  503 -0.00000000000E+00 -0.00000000000E+00 -0.14764658693E+02  0.14764658693E+02  0.00000000000E+00 0.  1.
          6    2    1    2  501    0 -0.40808220494E+02 -0.42127127140E+02  0.13672438613E+04  0.13792769344E+04  0.17207289089E+03 0.  0.
         24    2    3    3    0    0 -0.63442159756E+02 -0.58770227943E+02  0.62597802840E+03  0.63746401118E+03  0.83863139637E+02 0.  0.
         -6    2    1    2    0  502  0.40808220494E+02  0.42127127140E+02  0.93797019322E+03  0.95546643751E+03  0.17230213041E+03 0.  0.
        -24    2    5    5    0    0  0.67625151662E+02 -0.20099099577E+02  0.45818062743E+03  0.47089304934E+03  0.82665843129E+02 0.  0.
          5    1    3    3  501    0  0.22633939262E+02  0.16643100803E+02  0.74126583290E+03  0.74181292320E+03  0.47000000000E+01 0. -1.
        -13    1    4    4    0    0 -0.62601330336E+02 -0.31075594389E+02  0.57679142418E+03  0.58101029778E+03  0.00000000000E+00 0.  1.
         14    1    4    4    0    0 -0.84082942065E+00 -0.27694633554E+02  0.49186604219E+02  0.56453713397E+02  0.00000000000E+00 0. -1.
         -5    1    5    5    0  502 -0.26816931168E+02  0.62226226717E+02  0.47978956578E+03  0.48457338817E+03  0.47000000000E+01 0.  1.
         13    1    6    6    0    0  0.37144083792E+02  0.20591211363E+02  0.33428046389E+03  0.33696751993E+03  0.00000000000E+00 0. -1.
        -14    1    6    6    0    0  0.30481067870E+02 -0.40690310939E+02  0.12390016354E+03  0.13392552941E+03  0.00000000000E+00 0.  1.
</event>
<event>
12    1  0.1596842E-001  0.2365161E+03  0.7818608E-02  0.1122201E+00
         21   -1    0    0  501  502  0.00000000000E+00  0.00000000000E+00  0.85567342524E+03  0.85567342524E+03  0.00000000000E+00 0.  1.
         21   -1    0    0  502  503 -0.00000000000E+00 -0.00000000000E+00 -0.13241948675E+03  0.13241948675E+03  0.00000000000E+00 0.  1.
         -6    2    1    2    0  503  0.50347342658E+02 -0.15427731861E+03  0.99558644694E+01  0.23672552213E+03  0.17205669891E+03 0.  0.
        -24    2    3    3    0    0  0.56361535415E+01 -0.78947028674E+02  0.68337809618E+02  0.13134865307E+03  0.79485928794E+02 0.  0.
          6    2    1    2  501    0 -0.50347342658E+02  0.15427731861E+03  0.71329807402E+03  0.75136738986E+03  0.17152978221E+03 0.  0.
         24    2    5    5    0    0 -0.23637695795E+02  0.14513827679E+03  0.70015144375E+03  0.71987372052E+03  0.79889105997E+02 0.  0.
          5    1    5    5  501    0 -0.26709646862E+02  0.91390418211E+01  0.13146630275E+02  0.31493669340E+02  0.47000000000E+01 0. -1.
        -11    1    6    6    0    0 -0.11629698240E+02  0.81804290875E+02  0.21281486845E+03  0.22829226908E+03  0.00000000000E+00 0.  1.
         12    1    6    6    0    0 -0.12007997555E+02  0.63333985910E+02  0.48733657530E+03  0.49158145144E+03  0.00000000000E+00 0. -1.
         -5    1    3    3    0  503  0.44711189116E+02 -0.75330289932E+02 -0.58381945148E+02  0.10537686906E+03  0.47000000000E+01 0.  1.
         13    1    4    4    0    0  0.31931453721E+02 -0.74182895982E+02  0.33484722409E+02  0.87429665605E+02  0.00000000000E+00 0. -1.
        -14    1    4    4    0    0 -0.26295300179E+02 -0.47641326924E+01  0.34853087208E+02  0.43918987463E+02  0.00000000000E+00 0.  1.
</event>
<event>
12    1  0.1596842E-001  0.1740041E+03  0.7818608E-02  0.1174142E+00
         21   -1    0    0  503  502  0.00000000000E+00  0.00000000000E+00  0.14817757850E+04  0.14817757850E+04  0.00000000000E+00 0. -1.
         21   -1    0    0  501  503 -0.00000000000E+00 -0.00000000000E+00 -0.31025576311E+02  0.31025576311E+02  0.00000000000E+00 0. -1.
          6    2    1    2  501    0  0.69273177881E+01  0.21606901500E+02  0.11690455615E+04  0.11816896907E+04  0.17090393313E+03 0.  0.
         24    2    3    3    0    0  0.64349995538E+02 -0.29850736597E+01  0.55798776638E+03  0.56742928329E+03  0.80472427009E+02 0.  0.
         -6    2    1    2    0  502 -0.69273177881E+01 -0.21606901500E+02  0.28170464726E+03  0.33111167066E+03  0.17251835913E+03 0.  0.
        -24    2    5    5    0    0  0.13170128558E+02  0.36320890213E+02  0.74591587735E+02  0.11506203325E+03  0.78630192561E+02 0.  0.
          5    1    3    3  501    0 -0.57422677750E+02  0.24591975160E+02  0.61105779508E+03  0.61426040740E+03  0.47000000000E+01 0. -1.
        -13    1    4    4    0    0  0.71417265466E+02  0.17033487148E+02  0.31179027973E+03  0.32031819185E+03  0.00000000000E+00 0.  1.
         14    1    4    4    0    0 -0.70672699285E+01 -0.20018560807E+02  0.24619748665E+03  0.24711109144E+03  0.00000000000E+00 0. -1.
         -5    1    5    5    0  502 -0.20097446347E+02 -0.57927791713E+02  0.20711305952E+03  0.21604963741E+03  0.47000000000E+01 0.  1.
         13    1    6    6    0    0 -0.32410336383E+02  0.23344027662E+02  0.38675116011E+02  0.55598004734E+02  0.00000000000E+00 0. -1.
        -14    1    6    6    0    0  0.45580464941E+02  0.12976862551E+02  0.35916471724E+02  0.59464028513E+02  0.00000000000E+00 0.  1.
</event>
<event>
12    1  0.1596842E-001  0.1800128E+03  0.7818608E-02  0.1169104E+00
         21   -1    0    0  501  502  0.00000000000E+00  0.00000000000E+00  0.13039439644E+03  0.13039439644E+03  0.00000000000E+00 0.  1.
         21   -1    0    0  502  503 -0.00000000000E+00 -0.00000000000E+00 -0.29709829084E+03  0.29709829084E+03  0.00000000000E+00 0.  1.
         -6    2    1    2    0  503 -0.19421724818E+02 -0.27757909843E+02 -0.17504315808E+03  0.24728686506E+03  0.17135629982E+03 0.  0.
        -24    2    3    3    0    0 -0.34855425801E+01 -0.27532645502E+02 -0.12608431659E+02  0.84004462476E+02  0.78278870658E+02 0.  0.
          6    2    1    2  501    0  0.19421724818E+02  0.27757909843E+02  0.83392636773E+01  0.18020582222E+03  0.17679618233E+03 0.  0.
         24    2    5    5    0    0 -0.41144701959E+02 -0.20614410087E+02 -0.20317762733E+01  0.10186156998E+03  0.90850486639E+02 0.  0.
          5    1    5    5  501    0  0.60566426777E+02  0.48372319930E+02  0.10371039951E+02  0.78344252231E+02  0.47000000000E+01 0. -1.
        -13    1    6    6    0    0 -0.33525252195E+02  0.32445982413E+02  0.79727990270E+01  0.47331277543E+02  0.00000000000E+00 0.  1.
         14    1    6    6    0    0 -0.76194497638E+01 -0.53060392500E+02 -0.10004575300E+02  0.54530292442E+02  0.00000000000E+00 0. -1.
         -5    1    3    3    0  503 -0.15936182238E+02 -0.22526434159E+00 -0.16243472642E+03  0.16328240259E+03  0.47000000000E+01 0.  1.
         11    1    4    4    0    0 -0.72179089850E+01  0.26384118389E+02 -0.12215408538E+02  0.29957238175E+02  0.00000000000E+00 0. -1.
        -12    1    4    4    0    0  0.37323664049E+01 -0.53916763891E+02 -0.39302312117E+00  0.54047224301E+02  0.00000000000E+00 0.  1.
</event>
<event>
12    1  0.1596842E-001  0.2177544E+03  0.7818608E-02  0.1137932E+00
         21   -1    0    0  503  502  0.00000000000E+00  0.00000000000E+00  0.37562898389E+03  0.37562898389E+03  0.00000000000E+00 0.  1.
         21   -1    0    0  501  503 -0.00000000000E+00 -0.00000000000E+00 -0.12703831369E+03  0.12703831369E+03  0.00000000000E+00 0.  1.
          6    2    1    2  501    0  0.40025520503E+02  0.10015050318E+03  0.65618471260E+02  0.22742643225E+03  0.18916879430E+03 0.  0.
         24    2    3    3    0    0  0.92388462382E+02  0.28639927952E+02  0.10598833409E+02  0.12299994806E+03  0.75238145234E+02 0.  0.
         -6    2    1    2    0  502 -0.40025520503E+02 -0.10015050318E+03  0.18297219894E+03  0.27524086534E+03  0.17506154001E+03 0.  0.
        -24    2    5    5    0    0  0.17269597711E+02 -0.24895025949E+02  0.21742578618E+02  0.88256379637E+02  0.79990296284E+02 0.  0.
          5    1    3    3  501    0 -0.52362941880E+02  0.71510575223E+02  0.55019637851E+02  0.10442648419E+03  0.47000000000E+01 0. -1.
        -13    1    4    4    0    0  0.23156693674E+02  0.44799357817E+02 -0.33898961121E+01  0.50544102707E+02  0.00000000000E+00 0.  1.
         14    1    4    4    0    0  0.69231768708E+02 -0.16159429865E+02  0.13988729521E+02  0.72455845352E+02  0.00000000000E+00 0. -1.
         -5    1    5    5    0  502 -0.57295118214E+02 -0.75255477227E+02  0.16122962032E+03  0.18698448570E+03  0.47000000000E+01 0.  1.
         13    1    6    6    0    0  0.33497421231E+02  0.18957991381E+02  0.13418401902E+02  0.40761945193E+02  0.00000000000E+00 0. -1.
        -14    1    6    6    0    0 -0.16227823520E+02 -0.43853017330E+02  0.83241767164E+01  0.47494434444E+02  0.00000000000E+00 0.  1.
</event>
<event>
12    1  0.1596842E-001  0.2014549E+03  0.7818608E-02  0.1148553E+00
         21   -1    0    0  501  502  0.00000000000E+00  0.00000000000E+00  0.59083496265E+02  0.59083496265E+02  0.00000000000E+00 0.  1.
         21   -1    0    0  502  503 -0.00000000000E+00 -0.00000000000E+00 -0.20617672259E+04  0.20617672259E+04  0.00000000000E+00 0.  1.
         -6    2    1    2    0  503  0.10335586936E+03  0.15864568646E+02 -0.18673311893E+04  0.18781484953E+04  0.17199383585E+03 0.  0.
        -24    2    3    3    0    0  0.11905115328E+02  0.23704466875E+01 -0.38219408142E+03  0.39012979549E+03  0.77340743942E+02 0.  0.
          6    2    1    2  501    0 -0.10335586936E+03 -0.15864568646E+02 -0.13535254031E+03  0.24270222685E+03  0.17219158075E+03 0.  0.
         24    2    5    5    0    0 -0.89594210644E+02 -0.71904835348E+02 -0.65288884735E+02  0.15181273034E+03  0.74746496215E+02 0.  0.
          5    1    5    5  501    0 -0.13761658713E+02  0.56040266702E+02 -0.70063655580E+02  0.90889496510E+02  0.47000000000E+01 0. -1.
        -11    1    6    6    0    0 -0.85225619537E+02 -0.34499560766E+02 -0.67542262135E+02  0.11408585843E+03  0.00000000000E+00 0.  1.
         12    1    6    6    0    0 -0.43685911067E+01 -0.37405274582E+02  0.22533774002E+01  0.37726871915E+02  0.00000000000E+00 0. -1.
         -5    1    3    3    0  503  0.91450754029E+02  0.13494121959E+02 -0.14851371079E+04  0.14880186998E+04  0.47000000000E+01 0.  1.
         11    1    4    4    0    0 -0.12119751528E+02 -0.20238574894E+02 -0.30835450983E+03  0.30925554485E+03  0.00000000000E+00 0. -1.
        -12    1    4    4    0    0  0.24024866856E+02  0.22609021582E+02 -0.73839571586E+02  0.80874250639E+02  0.00000000000E+00 0.  1.
</event>
<event>
12    1  0.1596842E-001  0.2905353E+03  0.7818608E-02  0.1090380E+00
         21   -1    0    0  501  502  0.00000000000E+00  0.00000000000E+00  0.13684306750E+03  0.13684306750E+03  0.00000000000E+00 0. -1.
         21   -1    0    0  502  503 -0.00000000000E+00 -0.00000000000E+00 -0.71491686280E+03  0.71491686280E+03  0.00000000000E+00 0.  1.
         -6    2    1    2    0  503 -0.85554994600E+02 -0.21471081911E+03 -0.44974817113E+03  0.53414664099E+03  0.17210120193E+03 0.  0.
        -24    2    3    3    0    0 -0.78726754731E+02 -0.18877836613E+03 -0.45563086950E+03  0.50629321898E+03  0.83055167902E+02 0.  0.
          6    2    1    2  501    0  0.85554994600E+02  0.21471081911E+03 -0.12832562418E+03  0.31761328931E+03  0.17604074182E+03 0.  0.
         24    2    5    5    0    0 -0.18466483332E+02  0.48232040649E+02 -0.13241527895E+02  0.90012562669E+02  0.72522979981E+02 0.  0.
          5    1    5    5  501    0  0.10402147793E+03  0.16647877847E+03 -0.11508409628E+03  0.22760072664E+03  0.47000000000E+01 0. -1.
        -13    1    6    6    0    0  0.82576790014E-01 -0.17084381563E+02 -0.14032594258E+02  0.22108745191E+02  0.00000000000E+00 0.  1.
         14    1    6    6    0    0 -0.18549060122E+02  0.65316422212E+02  0.79106636268E+00  0.67903817477E+02  0.00000000000E+00 0. -1.
         -5    1    3    3    0  503 -0.68282398692E+01 -0.25932452982E+02  0.58826983779E+01  0.27853422008E+02  0.47000000000E+01 0.  1.
         13    1    4    4    0    0  0.22589581767E+01 -0.94798338486E+02 -0.23049882482E+03  0.24924192287E+03  0.00000000000E+00 0. -1.
        -14    1    4    4    0    0 -0.80985712908E+02 -0.93980027647E+02 -0.22513204468E+03  0.25705129611E+03  0.00000000000E+00 0.  1.
</event>
<event>
12    1  0.1596842E-001  0.2633749E+03  0.7818608E-02  0.1105905E+00
         21   -1    0    0  503  502  0.00000000000E+00  0.00000000000E+00  0.74738668152E+02  0.74738668152E+02  0.00000000000E+00 0.  1.
         21   -1    0    0  501  503 -0.00000000000E+00 -0.00000000000E+00 -0.10249528219E+04  0.10249528219E+04  0.00000000000E+00 0. -1.
          6    2    1    2  501    0 -0.74734917539E+02 -0.17833167499E+03 -0.29513299618E+03  0.39556264804E+03  0.17882625334E+03 0.  0.
         24    2    3    3    0    0 -0.40015773152E+02 -0.32320427138E+02 -0.18922888614E+03  0.21181697051E+03  0.80081118478E+02 0.  0.
         -6    2    1    2    0  502  0.74734917539E+02  0.17833167499E+03 -0.65508115754E+03  0.70412884199E+03  0.17110993236E+03 0.  0.
        -24    2    5    5    0    0  0.45839948953E+02  0.17199495977E+03 -0.64287422168E+03  0.67178425276E+03  0.79518867268E+02 0.  0.
          5    1    3    3  501    0 -0.34719144388E+02 -0.14601124785E+03 -0.10590411005E+03  0.18374567753E+03  0.47000000000E+01 0. -1.
        -13    1    4    4    0    0 -0.59506176385E+02 -0.28047363412E+02 -0.95353248379E+02  0.11584421263E+03  0.00000000000E+00 0.  1.
         14    1    4    4    0    0  0.19490403233E+02 -0.42730637256E+01 -0.93875637757E+02  0.95972757885E+02  0.00000000000E+00 0. -1.
         -5    1    5    5    0  502  0.28894968587E+02  0.63367152195E+01 -0.12206935865E+02  0.32344589232E+02  0.47000000000E+01 0.  1.
         11    1    6    6    0    0  0.40189291828E+02  0.14772620757E+03 -0.41122312916E+03  0.43879684768E+03  0.00000000000E+00 0. -1.
        -12    1    6    6    0    0  0.56506571246E+01  0.24268752198E+02 -0.23165109252E+03  0.23298740508E+03  0.00000000000E+00 0.  1.
</event>
<event>
12    1  0.1596842E-001  0.2259256E+03  0.7818608E-02  0.1130273E+00
         21   -1    0    0  501  502  0.00000000000E+00  0.00000000000E+00  0.73600167388E+02  0.73600167388E+02  0.00000000000E+00 0. -1.
         21   -1    0    0  502  503 -0.00000000000E+00 -0.00000000000E+00 -0.30131885980E+04  0.30131885980E+04  0.00000000000E+00 0.  1.
         -6    2    1    2    0  503  0.81890081355E+02 -0.11250843937E+03 -0.28245656597E+04  0.28332683403E+04  0.17284151098E+03 0.  0.
        -24    2    3    3    0    0 -0.10997407637E+01 -0.60760519321E+02 -0.79858024242E+03  0.80491823276E+03  0.80435736461E+02 0.  0.
          6    2    1    2  501    0 -0.81890081355E+02  0.11250843937E+03 -0.11502277090E+03  0.25352042506E+03  0.17798380192E+03 0.  0.
         24    2    5    5    0    0 -0.67830649360E+02  0.35575721633E+01 -0.13704570883E+02  0.10400311253E+03  0.77557584028E+02 0.  0.
          5    1    5    5  501    0 -0.14059431995E+02  0.10895086720E+03 -0.10131820002E+03  0.14951731253E+03  0.47000000000E+01 0. -1.
        -11    1    6    6    0    0  0.15465918624E+01  0.29074956360E+02 -0.54602798240E+01  0.29623633968E+02  0.00000000000E+00 0.  1.
         12    1    6    6    0    0 -0.69377241222E+02 -0.25517384196E+02 -0.82442910586E+01  0.74379478560E+02  0.00000000000E+00 0. -1.
         -5    1    3    3    0  503  0.82989822119E+02 -0.51747920044E+02 -0.20259854173E+04  0.20283501075E+04  0.47000000000E+01 0.  1.
         13    1    4    4    0    0 -0.34732290474E+02 -0.30971076614E+02 -0.57429268621E+03  0.57617499861E+03  0.00000000000E+00 0. -1.
        -14    1    4    4    0    0  0.33632549710E+02 -0.29789442708E+02 -0.22428755622E+03  0.22874323415E+03  0.00000000000E+00 0.  1.
</event>
<event>
12    1  0.1596842E-001  0.1838362E+03  0.7818608E-02  0.1164210E+00
         21   -1    0    0  503  502  0.00000000000E+00  0.00000000000E+00  0.91052172088E+03  0.91052172088E+03  0.00000000000E+00 0. -1.
         21   -1    0    0  501  503 -0.00000000000E+00 -0.00000000000E+00 -0.42063497768E+02  0.42063497768E+02  0.00000000000E+00 0.  1.
          6    2    1    2  501    0 -0.43309598377E+02 -0.48941363237E+02  0.26962848473E+03  0.32617256330E+03  0.17151688815E+03 0.  0.
         24    2    3    3    0    0 -0.50022652051E+02 -0.96350421573E+02  0.20928528645E+03  0.24899694875E+03  0.80084205102E+02 0.  0.
         -6    2    1    2    0  502  0.43309598377E+02  0.48941363237E+02  0.59882973838E+03  0.62641265535E+03  0.17182776512E+03 0.  0.
        -24    2    5    5    0    0 -0.43585861069E+02  0.25454255301E+02  0.30355438005E+03  0.31768608968E+03  0.78940126251E+02 0.  0.
          5    1    3    3  501    0  0.67130536747E+01  0.47409058336E+02  0.60343198284E+02  0.77175614549E+02  0.47000000000E+01 0. -1.
        -13    1    4    4    0    0 -0.63743880646E+02 -0.56418935257E+02  0.97110519554E+02  0.12913880743E+03  0.00000000000E+00 0.  1.
         14    1    4    4    0    0  0.13721228595E+02 -0.39931486317E+02  0.11217476689E+03  0.11985814132E+03  0.00000000000E+00 0. -1.
         -5    1    5    5    0  502  0.86895459446E+02  0.23487107936E+02  0.29527535834E+03  0.30872656567E+03  0.47000000000E+01 0.  1.
         11    1    6    6    0    0  0.67668504169E+01 -0.91964944768E+01  0.17466481568E+03  0.17503760627E+03  0.00000000000E+00 0. -1.
        -12    1    6    6    0    0 -0.50352711486E+02  0.34650749778E+02  0.12888956437E+03  0.14264848341E+03  0.00000000000E+00 0.  1.
</event>
<event>
12    1  0.1596842E-001  0.2254407E+03  0.7818608E-02  0.1130024E+00
         21   -1    0    0  503  502  0.00000000000E+00  0.00000000000E+00  0.11270283345E+03  0.11270283345E+03  0.00000000000E+00 0. -1.
         21   -1    0    0  501  503 -0.00000000000E+00 -0.00000000000E+00 -0.45884462648E+03  0.45884462648E+03  0.00000000000E+00 0.  1.
          6    2    1    2  501    0 -0.12613956803E+03  0.71819193050E+02 -0.21416819100E+03  0.31095259712E+03  0.17249439558E+03 0.  0.
         24    2    3    3    0    0 -0.10212473130E+03  0.60462194241E+02 -0.23591997354E+03  0.27629824893E+03  0.81224077526E+02 0.  0.
         -6    2    1    2    0  502  0.12613956803E+03 -0.71819193050E+02 -0.13197360203E+03  0.26059486280E+03  0.17153269010E+03 0.  0.
        -24    2    5    5    0    0 -0.60632989947E+01 -0.21501708074E+02 -0.47735907677E+02  0.95890501920E+02  0.80107330701E+02 0.  0.
          5    1    3    3  501    0 -0.24014836728E+02  0.11356998809E+02  0.21751782537E+02  0.34654348191E+02  0.47000000000E+01 0. -1.
        -11    1    4    4    0    0 -0.54418213267E+02 -0.16815355186E+01 -0.15217208164E+03  0.16161841456E+03  0.00000000000E+00 0.  1.
         12    1    4    4    0    0 -0.47706518034E+02  0.62143729760E+02 -0.83747891904E+02  0.11467983436E+03  0.00000000000E+00 0. -1.
         -5    1    5    5    0  502  0.13220286702E+03 -0.50317484976E+02 -0.84237694350E+02  0.16470436088E+03  0.47000000000E+01 0.  1.
         11    1    6    6    0    0  0.23236543576E+02 -0.42197760738E+01  0.12494367584E+02  0.26718021798E+02  0.00000000000E+00 0. -1.
        -12    1    6    6    0    0 -0.29299842571E+02 -0.17281932000E+02 -0.60230275261E+02  0.69172480123E+02  0.00000000000E+00 0.  1.
</event>
<event>
12    1  0.1596842E-001  0.1949082E+03  0.7818608E-02  0.1157763E+00
         21   -1    0    0  503  502  0.00000000000E+00  0.00000000000E+00  0.14611925819E+03  0.14611925819E+03  0.00000000000E+00 0. -1.
         21   -1    0    0  501  503 -0.00000000000E+00 -0.00000000000E+00 -0.28721742229E+03  0.28721742229E+03  0.00000000000E+00 0. -1.
          6    2    1    2  501    0  0.56239994848E+00 -0.91440534169E+02 -0.16170688865E+03  0.25325544900E+03  0.17212645650E+03 0.  0.
         24    2    3    3    0    0  0.16665949276E+02 -0.48004144128E+02 -0.98479510468E+01  0.94418201441E+02  0.78966213691E+02 0.  0.
         -6    2    1    2    0  502 -0.56239994848E+00  0.91440534169E+02  0.20608724549E+02  0.18008123148E+03  0.15376229324E+03 0.  0.
        -24    2    5    5    0    0  0.53442090519E+02  0.32637586717E+02 -0.68991548083E-01  0.97474152111E+02  0.74698972310E+02 0.  0.
          5    1    3    3  501    0 -0.16103549327E+02 -0.43436390041E+02 -0.15185893761E+03  0.15883724756E+03  0.47000000000E+01 0. -1.
        -13    1    4    4    0    0 -0.51944941693E+01 -0.61156818375E+02  0.98813463256E+01  0.62167356455E+02  0.00000000000E+00 0.  1.
         14    1    4    4    0    0  0.21860443445E+02  0.13152674247E+02 -0.19729297372E+02  0.32250844985E+02  0.00000000000E+00 0. -1.
         -5    1    5    5    0  502 -0.54004490467E+02  0.58802947452E+02  0.20677716097E+02  0.82607079374E+02  0.47000000000E+01 0.  1.
         13    1    6    6    0    0  0.55447341491E+02  0.42958636828E+02 -0.21701323707E+02  0.73422064852E+02  0.00000000000E+00 0. -1.
        -14    1    6    6    0    0 -0.20052509725E+01 -0.10321050111E+02  0.21632332159E+02  0.24052087258E+02  0.00000000000E+00 0.  1.
</event>
<event>
12    1  0.1596842E-001  0.2331847E+03  0.7818608E-02  0.1124539E+00
         21   -1    0    0  501  502  0.00000000000E+00  0.00000000000E+00  0.11227844701E+04  0.11227844701E+04  0.00000000000E+00 0. -1.
         21   -1    0    0  502  503 -0.00000000000E+00 -0.00000000000E+00 -0.11060182977E+03  0.11060182977E+03  0.00000000000E+00 0. -1.
         -6    2    1    2    0  503  0.14902239884E+03  0.47284205270E+02  0.42853662598E+02  0.23640397513E+03  0.17206664881E+03 0.  0.
        -24    2    3    3    0    0  0.11375057448E+03 -0.31043220785E+02  0.62336116127E+01  0.14290314411E+03  0.80495813137E+02 0.  0.
          6    2    1    2  501    0 -0.14902239884E+03 -0.47284205270E+02  0.96932897776E+03  0.99698232477E+03  0.17300756444E+03 0.  0.
         24    2    5    5    0    0 -0.16483506529E+03 -0.27888678568E+00  0.77527970851E+03  0.79664074326E+03  0.80044805357E+02 0.  0.
          5    1    5    5  501    0  0.15812666449E+02 -0.47005318484E+02  0.19404926926E+03  0.20034158152E+03  0.47000000000E+01 0. -1.
        -13    1    6    6    0    0 -0.12727595396E+03  0.25515002601E+02  0.66075956556E+03  0.67338947668E+03  0.00000000000E+00 0.  1.
         14    1    6    6    0    0 -0.37559111330E+02 -0.25793889387E+02  0.11452014294E+03  0.12325126658E+03  0.00000000000E+00 0. -1.
         -5    1    3    3    0  503  0.35271824365E+02  0.78327426055E+02  0.36620050986E+02  0.93500831015E+02  0.47000000000E+01 0.  1.
         13    1    4    4    0    0  0.81634059015E+02  0.73272930482E+01  0.30293748838E+02  0.87381462756E+02  0.00000000000E+00 0. -1.
        -14    1    4    4    0    0  0.32116515460E+02 -0.38370513833E+02 -0.24060137225E+02  0.55521681354E+02  0.00000000000E+00 0.  1.
</event>
<event>
12    1  0.1596842E-001  0.1786872E+03  0.7818608E-02  0.1169088E+00
         21   -1    0    0  503  502  0.00000000000E+00  0.00000000000E+00  0.59813938683E+03  0.59813938683E+03  0.00000000000E+00 0. -1.
         21   -1    0    0  501  503 -0.00000000000E+00 -0.00000000000E+00 -0.57580047156E+02  0.57580047156E+02  0.00000000000E+00 0. -1.
          6    2    1    2  501    0 -0.13890458476E+02 -0.48548624172E+02  0.35890563373E+03  0.40091132157E+03  0.17136720834E+03 0.  0.
         24    2    3    3    0    0  0.84914934688E+01  0.29362925722E+02  0.24240987681E+03  0.25890951609E+03  0.85658054372E+02 0.  0.
         -6    2    1    2    0  502  0.13890458476E+02  0.48548624172E+02  0.18165370594E+03  0.25480811241E+03  0.17140359250E+03 0.  0.
        -24    2    5    5    0    0 -0.45309244227E+02  0.66825047267E+02  0.92914845097E+02  0.14647848643E+03  0.79399395416E+02 0.  0.
          5    1    3    3  501    0 -0.22381951945E+02 -0.77911549894E+02  0.11649575693E+03  0.14200180549E+03  0.47000000000E+01 0. -1.
        -13    1    4    4    0    0 -0.28144302740E+02 -0.15422229367E+02  0.68930001091E+02  0.76034807725E+02  0.00000000000E+00 0.  1.
         14    1    4    4    0    0  0.36635796209E+02  0.44785155089E+02  0.17347987572E+03  0.18287470836E+03  0.00000000000E+00 0. -1.
         -5    1    5    5    0  502  0.59199702703E+02 -0.18276423095E+02  0.88738860840E+02  0.10832962598E+03  0.47000000000E+01 0.  1.
         11    1    6    6    0    0 -0.32544835210E+02 -0.10732482328E+02  0.22899903494E+02  0.41215992719E+02  0.00000000000E+00 0. -1.
        -12    1    6    6    0    0 -0.12764409017E+02  0.77557529595E+02  0.70014941603E+02  0.10526249371E+03  0.00000000000E+00 0.  1.
</event>
<event>
12    1  0.1596842E-001  0.2571563E+03  0.7818608E-02  0.1108930E+00
         21   -1    0    0  503  502  0.00000000000E+00  0.00000000000E+00  0.15161499212E+03  0.15161499212E+03  0.00000000000E+00 0. -1.
         21   -1    0    0  501  503 -0.00000000000E+00 -0.00000000000E+00 -0.55732734364E+03  0.55732734364E+03  0.00000000000E+00 0.  1.
          6    2    1    2  501    0  0.38621648345E+02  0.18710642495E+03 -0.36876163530E+03  0.44957145940E+03  0.17213049543E+03 0.  0.
         24    2    3    3    0    0  0.55634646175E+02  0.19781366301E+03 -0.27125311527E+03  0.34990156163E+03  0.81408790428E+02 0.  0.
         -6    2    1    2    0  502 -0.38621648345E+02 -0.18710642495E+03 -0.36950716224E+02  0.25937087636E+03  0.17148600554E+03 0.  0.
        -24    2    5    5    0    0 -0.16327015535E+02 -0.20701458230E+03 -0.17072354535E+02  0.22316832611E+03  0.79943903891E+02 0.  0.
          5    1    3    3  501    0 -0.17012997830E+02 -0.10707238063E+02 -0.97508520032E+02  0.99669897767E+02  0.47000000000E+01 0. -1.
        -13    1    4    4    0    0  0.53495317272E+02  0.60214728446E+02 -0.12819057000E+03  0.15139479756E+03  0.00000000000E+00 0.  1.
         14    1    4    4    0    0  0.21393289033E+01  0.13759893457E+03 -0.14306254527E+03  0.19850676407E+03  0.00000000000E+00 0. -1.
         -5    1    5    5    0  502 -0.22294632810E+02  0.19908157348E+02 -0.19878361688E+02  0.36202550249E+02  0.47000000000E+01 0.  1.
         11    1    6    6    0    0 -0.48608678129E+02 -0.13565791851E+03 -0.14116629435E+02  0.14479348628E+03  0.00000000000E+00 0. -1.
        -12    1    6    6    0    0  0.32281662595E+02 -0.71356663792E+02 -0.29557251004E+01  0.78374839829E+02  0.00000000000E+00 0.  1.
</event>
<event>
12    1  0.1596842E-001  0.2363423E+03  0.7818608E-02  0.1123071E+00
         21   -1    0    0  503  502  0.00000000000E+00  0.00000000000E+00  0.22726117166E+03  0.22726117166E+03  0.00000000000E+00 0. -1.
         21   -1    0    0  501  503 -0.00000000000E+00 -0.00000000000E+00 -0.34743412298E+03  0.34743412298E+03  0.00000000000E+00 0.  1.
          6    2    1    2  501    0  0.23132252590E+02 -0.15462023579E+03 -0.21964734821E+03  0.32264943904E+03  0.17724329188E+03 0.  0.
         24    2    3    3    0    0 -0.38019373474E+02 -0.14934600191E+03 -0.17578083630E+03  0.24706042013E+03  0.79939025127E+02 0.  0.
         -6    2    1    2    0  502 -0.23132252590E+02  0.15462023579E+03  0.99474396887E+02  0.25204585560E+03  0.17084917110E+03 0.  0.
        -24    2    5    5    0    0 -0.38747648561E+02  0.14959986743E+02  0.54038921399E+02  0.10427813860E+03  0.78921123232E+02 0.  0.
          5    1    3    3  501    0  0.61151626065E+02 -0.52742338780E+01 -0.43866511907E+02  0.75589018913E+02  0.47000000000E+01 0. -1.
        -11    1    4    4    0    0 -0.54441529141E+02 -0.12588326285E+03 -0.11173999231E+03  0.17690760821E+03  0.00000000000E+00 0.  1.
         12    1    4    4    0    0  0.16422155667E+02 -0.23462739054E+02 -0.64040843993E+02  0.70152811918E+02  0.00000000000E+00 0. -1.
         -5    1    5    5    0  502  0.15615395971E+02  0.13966024904E+03  0.45435475488E+02  0.14776771700E+03  0.47000000000E+01 0.  1.
         11    1    6    6    0    0 -0.11537298261E+02  0.23185826895E+02  0.67886196716E+02  0.72658292883E+02  0.00000000000E+00 0. -1.
        -12    1    6    6    0    0 -0.27210350300E+02 -0.82258401528E+01 -0.13847275318E+02  0.31619845721E+02  0.00000000000E+00 0.  1.
</event>
<event>
12    1  0.1596842E-001  0.1978580E+03  0.7818608E-02  0.1152564E+00
         21   -1    0    0  503  502  0.00000000000E+00  0.00000000000E+00  0.11618299135E+04  0.11618299135E+04  0.00000000000E+00 0. -1.
         21   -1    0    0  501  503 -0.00000000000E+00 -0.00000000000E+00 -0.36938375191E+02  0.36938375191E+02  0.00000000000E+00 0. -1.
          6    2    1    2  501    0 -0.63923820857E+02  0.67155060383E+02  0.37044603892E+03  0.41997385390E+03  0.17479048374E+03 0.  0.
         24    2    3    3    0    0 -0.16783103033E+02  0.70390458163E+02  0.11132649085E+03  0.15653933592E+03  0.82912526055E+02 0.  0.
         -6    2    1    2    0  502  0.63923820857E+02 -0.67155060383E+02  0.75444549943E+03  0.77879443483E+03  0.16951903462E+03 0.  0.
        -24    2    5    5    0    0  0.87268824616E+02 -0.28716051839E+01  0.37620513244E+03  0.39439201934E+03  0.79941662331E+02 0.  0.
          5    1    3    3  501    0 -0.47140717825E+02 -0.32353977796E+01  0.25911954807E+03  0.26343451798E+03  0.47000000000E+01 0. -1.
        -13    1    4    4    0    0 -0.13984604544E+02 -0.17885581066E+01 -0.86180258021E+01  0.16523875849E+02  0.00000000000E+00 0.  1.
         14    1    4    4    0    0 -0.27984984893E+01  0.72179016269E+02  0.11994451665E+03  0.14001546007E+03  0.00000000000E+00 0. -1.
         -5    1    5    5    0  502 -0.23345003759E+02 -0.64283455199E+02  0.37824036699E+03  0.38440241549E+03  0.47000000000E+01 0.  1.
         11    1    6    6    0    0  0.18058200299E+02  0.16080114424E+02  0.23262877661E+03  0.23388205656E+03  0.00000000000E+00 0. -1.
        -12    1    6    6    0    0  0.69210624318E+02 -0.18951719608E+02  0.14357635584E+03  0.16050996278E+03  0.00000000000E+00 0.  1.
</event>
<event>
12    1  0.1596842E-001  0.2125329E+03  0.7818608E-02  0.1139682E+00
         21   -1    0    0  501  502  0.00000000000E+00  0.00000000000E+00  0.61330799557E+03  0.61330799557E+03  0.00000000000E+00 0.  1.
         21   -1    0    0  502  503 -0.00000000000E+00 -0.00000000000E+00 -0.30223789410E+03  0.30223789410E+03  0.00000000000E+00 0.  1.
         -6    2    1    2    0  503 -0.10092873056E+03 -0.74261093114E+02 -0.24278707069E+03  0.32231069258E+03  0.17098918754E+03 0.  0.
        -24    2    3    3    0    0  0.63687364287E+01 -0.29945330899E+02 -0.53986587431E+02  0.10062545248E+03  0.79206353388E+02 0.  0.
          6    2    1    2  501    0  0.10092873056E+03  0.74261093114E+02  0.55385717216E+03  0.59323519709E+03  0.17166511966E+03 0.  0.
         24    2    5    5    0    0  0.75053944258E+02  0.35658377366E+02  0.52643180759E+03  0.53906957283E+03  0.80999641269E+02 0.  0.
          5    1    5    5  501    0  0.25874786302E+02  0.38602715748E+02  0.27425364573E+02  0.54165624258E+02  0.47000000000E+01 0. -1.
        -11    1    6    6    0    0  0.80091170335E+02  0.54167250008E+02  0.42789525464E+03  0.43868329748E+03  0.00000000000E+00 0.  1.
         12    1    6    6    0    0 -0.50372260771E+01 -0.18508872642E+02  0.98536552942E+02  0.10038627535E+03  0.00000000000E+00 0. -1.
         -5    1    3    3    0  503 -0.10729746699E+03 -0.44315762215E+02 -0.18880048326E+03  0.22168524011E+03  0.47000000000E+01 0.  1.
         13    1    4    4    0    0  0.10877800872E+02  0.26217066799E+02 -0.21301123779E+02  0.35488012309E+02  0.00000000000E+00 0. -1.
        -14    1    4    4    0    0 -0.45090644432E+01 -0.56162397698E+02 -0.32685463651E+02  0.65137440166E+02  0.00000000000E+00 0.  1.
</event>
<event>
12    1  0.1596842E-001  0.2014136E+03  0.7818608E-02  0.1149258E+00
         21   -1    0    0  503  502  0.00000000000E+00  0.00000000000E+00  0.35367542890E+02  0.35367542890E+02  0.00000000000E+00 0.  1.
         21   -1    0    0  501  503 -0.00000000000E+00 -0.00000000000E+00 -0.15749816987E+04  0.15749816987E+04  0.00000000000E+00 0.  1.
          6    2    1    2  501    0  0.92086705895E+02 -0.52694240197E+02 -0.33626903875E+03  0.39026444583E+03  0.16725079043E+03 0.  0.
         24    2    3    3    0    0  0.58819806782E+02 -0.31199701072E+02 -0.85875576892E+02  0.13671429786E+03  0.82963808479E+02 0.  0.
         -6    2    1    2    0  502 -0.92086705895E+02  0.52694240197E+02 -0.12033451171E+04  0.12200847958E+04  0.17120395368E+03 0.  0.
        -24    2    5    5    0    0  0.20956983465E+02  0.22525273554E+02 -0.52491232769E+03  0.53162115697E+03  0.78367848464E+02 0.  0.
          5    1    3    3  501    0  0.33266899113E+02 -0.21494539125E+02 -0.25039346186E+03  0.25355014796E+03  0.47000000000E+01 0. -1.
        -13    1    4    4    0    0  0.78783613254E+02 -0.14637644541E+02 -0.60288828605E+02  0.10027891707E+03  0.00000000000E+00 0.  1.
         14    1    4    4    0    0 -0.19963806473E+02 -0.16562056531E+02 -0.25586748287E+02  0.36435380790E+02  0.00000000000E+00 0. -1.
         -5    1    5    5    0  502 -0.11304368936E+03  0.30168966643E+02 -0.67843278936E+03  0.68846363879E+03  0.47000000000E+01 0.  1.
         13    1    6    6    0    0 -0.15974672551E+02 -0.16338438880E+02 -0.27891239160E+03  0.27984684550E+03  0.00000000000E+00 0. -1.
        -14    1    6    6    0    0  0.36931656016E+02  0.38863712434E+02 -0.24599993609E+03  0.25177431147E+03  0.00000000000E+00 0.  1.
</event>
<event>
12    1  0.1596842E-001  0.1881340E+03  0.7818608E-02  0.1160324E+00
         21   -1    0    0  501  502  0.00000000000E+00  0.00000000000E+00  0.11563662504E+04  0.11563662504E+04  0.00000000000E+00 0.  1.
         21   -1    0    0  502  503 -0.00000000000E+00 -0.00000000000E+00 -0.46794333753E+02  0.46794333753E+02  0.00000000000E+00 0.  1.
         -6    2    1    2    0  503 -0.13532206118E+02  0.75418570510E+02  0.19896196020E+03  0.27331924756E+03  0.17101598785E+03 0.  0.
        -24    2    3    3    0    0 -0.65166043931E+01  0.51752481634E+02  0.22029638273E+03  0.24035638944E+03  0.80745973350E+02 0.  0.
          6    2    1    2  501    0  0.13532206118E+02 -0.75418570510E+02  0.91060995641E+03  0.92984133656E+03  0.17182356380E+03 0.  0.
         24    2    5    5    0    0 -0.51806122779E+02 -0.65555288535E+02  0.68685958126E+03  0.69649030928E+03  0.79632256855E+02 0.  0.
          5    1    5    5  501    0  0.65338328896E+02 -0.98632819747E+01  0.22375037515E+03  0.23335102728E+03  0.47000000000E+01 0. -1.
        -13    1    6    6    0    0 -0.52434680149E+02 -0.47040906535E+02  0.26434950300E+03  0.27357430856E+03  0.00000000000E+00 0.  1.
         14    1    6    6    0    0  0.62855737057E+00 -0.18514382000E+02  0.42251007826E+03  0.42291600071E+03  0.00000000000E+00 0. -1.
         -5    1    3    3    0  503 -0.70156017245E+01  0.23666088876E+02 -0.21334422535E+02  0.32962858115E+02  0.47000000000E+01 0.  1.
         13    1    4    4    0    0 -0.29710991797E+02  0.63508599354E+02  0.16224073327E+03  0.17674314911E+03  0.00000000000E+00 0. -1.
        -14    1    4    4    0    0  0.23194387404E+02 -0.11756117720E+02  0.58055649458E+02  0.63613240327E+02  0.00000000000E+00 0.  1.
</event>
<event>
12    1  0.1596842E-001  0.2700499E+03  0.7818608E-02  0.1101294E+00
         21   -1    0    0  501  502  0.00000000000E+00  0.00000000000E+00  0.91855320176E+02  0.91855320176E+02  0.00000000000E+00 0. -1.
         21   -1    0    0  502  503 -0.00000000000E+00 -0.00000000000E+00 -0.82148512491E+03  0.82148512491E+03  0.00000000000E+00 0. -1.
         -6    2    1    2    0  503  0.18125632381E+03 -0.10220454921E+03 -0.44998650989E+03  0.52479978546E+03  0.17212591596E+03 0.  0.
        -24    2    3    3    0    0  0.62019559383E+02 -0.85775779232E+02 -0.32818734534E+03  0.35349760522E+03  0.77779902310E+02 0.  0.
          6    2    1    2  501    0 -0.18125632381E+03  0.10220454921E+03 -0.27964329484E+03  0.38854065962E+03  0.17165036274E+03 0.  0.
         24    2    5    5    0    0 -0.88863535172E+02  0.94965982769E+02 -0.24546914373E+03  0.28965291093E+03  0.82027084078E+02 0.  0.
          5    1    5    5  501    0 -0.92392788633E+02  0.72385664373E+01 -0.34174151110E+02  0.98887748683E+02  0.47000000000E+01 0. -1.
        -13    1    6    6    0    0 -0.46940990461E+02  0.45013668996E+01 -0.12299393459E+03  0.13172405564E+03  0.00000000000E+00 0.  1.
         14    1    6    6    0    0 -0.41922544711E+02  0.90464615869E+02 -0.12247520914E+03  0.15792885529E+03  0.00000000000E+00 0. -1.
         -5    1    3    3    0  503  0.11923676442E+03 -0.16428769974E+02 -0.12179916454E+03  0.17130218024E+03  0.47000000000E+01 0.  1.
         13    1    4    4    0    0  0.44635428344E+01 -0.30290123826E+02 -0.20066595740E+03  0.20298827867E+03  0.00000000000E+00 0. -1.
        -14    1    4    4    0    0  0.57556016548E+02 -0.55485655406E+02 -0.12752138794E+03  0.15050932655E+03  0.00000000000E+00 0.  1.
</event>
<event>
12    1  0.1596842E-001  0.2249203E+03  0.7818608E-02  0.1130321E+00
         21   -1    0    0  501  502  0.00000000000E+00  0.00000000000E+00  0.83268579778E+02  0.83268579778E+02  0.00000000000E+00 0. -1.
         21   -1    0    0  502  503 -0.00000000000E+00 -0.00000000000E+00 -0.60684274835E+03  0.60684274835E+03  0.00000000000E+00 0. -1.
         -6    2    1    2    0  503 -0.13277267526E+03 -0.57949083289E+02 -0.26654187664E+03  0.34876024401E+03  0.17205364352E+03 0.  0.
        -24    2    3    3    0    0 -0.13391986272E+03 -0.97468784206E+02 -0.21073237713E+03  0.28020433226E+03  0.81680104829E+02 0.  0.
          6    2    1    2  501    0  0.13277267526E+03  0.57949083289E+02 -0.25703229193E+03  0.34135108411E+03  0.17166328664E+03 0.  0.
         24    2    5    5    0    0  0.37606562726E+02 -0.30598346826E+02 -0.11673445672E+03  0.15003247833E+03  0.80822637789E+02 0.  0.
          5    1    5    5  501    0  0.95166112539E+02  0.88547430115E+02 -0.14029783520E+03  0.19131860578E+03  0.47000000000E+01 0. -1.
        -13    1    6    6    0    0 -0.80499541695E+01 -0.20467575550E+02  0.23259590012E+01  0.22116362637E+02  0.00000000000E+00 0.  1.
         14    1    6    6    0    0  0.45656516895E+02 -0.10130771276E+02 -0.11906041572E+03  0.12791611569E+03  0.00000000000E+00 0. -1.
         -5    1    3    3    0  503  0.11471874505E+01  0.39519700917E+02 -0.55809499517E+02  0.68555911751E+02  0.47000000000E+01 0.  1.
         13    1    4    4    0    0 -0.11112184961E+03 -0.11150032097E+03 -0.17249068509E+03  0.23352392486E+03  0.00000000000E+00 0. -1.
        -14    1    4    4    0    0 -0.22798013101E+02  0.14031536768E+02 -0.38241692040E+02  0.46680407405E+02  0.00000000000E+00 0.  1.
</event>
<event>
12    1  0.1596842E-001  0.2121134E+03  0.7818608E-02  0.1141541E+00
         21   -1    0    0  501  502  0.00000000000E+00  0.00000000000E+00  0.20693585011E+04  0.20693585011E+04  0.00000000000E+00 0.  1.
         21   -1    0    0  502  503 -0.00000000000E+00 -0.00000000000E+00 -0.50277674896E+02  0.50277674896E+02  0.00000000000E+00 0. -1.
         -6    2    1    2    0  503  0.11220109578E+03  0.30137263879E+02  0.20788672726E+03  0.29699999979E+03  0.17746765320E+03 0.  0.
        -24    2    3    3    0    0  0.11904571100E+03  0.59812765690E+01  0.22472247090E+03  0.26640763564E+03  0.79152905361E+02 0.  0.
          6    2    1    2  501    0 -0.11220109578E+03 -0.30137263879E+02  0.18111940989E+04  0.18226361762E+04  0.16757453930E+03 0.  0.
         24    2    5    5    0    0 -0.78761810185E+02  0.14761403304E+02  0.16037867553E+04  0.16077548780E+04  0.79513957219E+02 0.  0.
          5    1    5    5  501    0 -0.33439285600E+02 -0.44898667182E+02  0.20740734360E+03  0.21488129820E+03  0.47000000000E+01 0. -1.
        -13    1    6    6    0    0 -0.48230152306E+02 -0.31340367242E+02  0.84693588896E+03  0.84888678056E+03  0.00000000000E+00 0.  1.
         14    1    6    6    0    0 -0.30531657879E+02  0.46101770546E+02  0.75685086634E+03  0.75886809740E+03  0.00000000000E+00 0. -1.
         -5    1    3    3    0  503 -0.68446152115E+01  0.24155987310E+02 -0.16835743632E+02  0.30592364144E+02  0.47000000000E+01 0.  1.
         13    1    4    4    0    0  0.79732808946E+02  0.15755578535E+02  0.72582677329E+02  0.10896698640E+03  0.00000000000E+00 0. -1.
        -14    1    4    4    0    0  0.39312902050E+02 -0.97743019662E+01  0.15213979357E+03  0.15744064924E+03  0.00000000000E+00 0.  1.
</event>
<event>
12    1  0.1596842E-001  0.2327089E+03  0.7818608E-02  0.1126360E+00
         21   -1    0    0  501  502  0.00000000000E+00  0.00000000000E+00  0.15296753558E+04  0.15296753558E+04  0.00000000000E+00 0.  1.
         21   -1    0    0  502  503 -0.00000000000E+00 -0.00000000000E+00 -0.65580783216E+02  0.65580783216E+02  0.00000000000E+00 0.  1.
         -6    2    1    2    0  503 -0.10760687183E+03  0.95044682877E+02  0.17128085006E+03  0.28166535318E+03  0.17142202593E+03 0.  0.
        -24    2    3    3    0    0 -0.18965735754E+02  0.12234505679E+01  0.10410178833E+03  0.13608104436E+03  0.85555083645E+02 0.  0.
          6    2    1    2  501    0  0.10760687183E+03 -0.95044682877E+02  0.12928137225E+04  0.13135907858E+04  0.18314120478E+03 0.  0.
         24    2    5    5    0    0  0.12576634689E+03 -0.10533263553E+03  0.12667776112E+04  0.12798924536E+04  0.80542152772E+02 0.  0.
          5    1    5    5  501    0 -0.18159475057E+02  0.10287952648E+02  0.26036111305E+02  0.33698332243E+02  0.47000000000E+01 0. -1.
        -13    1    6    6    0    0  0.77777677681E+02 -0.98008949112E+02  0.70461526729E+03  0.71563803430E+03  0.00000000000E+00 0.  1.
         14    1    6    6    0    0  0.47988669211E+02 -0.73236864141E+01  0.56216234389E+03  0.56425441925E+03  0.00000000000E+00 0. -1.
         -5    1    3    3    0  503 -0.88641136081E+02  0.93821232310E+02  0.67179061731E+02  0.14558430881E+03  0.47000000000E+01 0.  1.
         11    1    4    4    0    0  0.30599432382E+01  0.38551295815E+02  0.73407910739E+02  0.82971603701E+02  0.00000000000E+00 0. -1.
        -12    1    4    4    0    0 -0.22025678992E+02 -0.37327845247E+02  0.30693877590E+02  0.53109440662E+02  0.00000000000E+00 0.  1.
</event>
<event>
12    1  0.1596842E-001  0.2146786E+03  0.7818608E-02  0.1138004E+00
         21   -1    0    0  501  502  0.00000000000E+00  0.00000000000E+00  0.16532753351E+03  0.16532753351E+03  0.00000000000E+00 0. -1.
         21   -1    0    0  502  503 -0.00000000000E+00 -0.00000000000E+00 -0.28104777275E+03  0.28104777275E+03  0.00000000000E+00 0. -1.
         -6    2    1    2    0  503  0.12445167729E+03  0.26565096291E+02 -0.35267121469E+02  0.21755615125E+03  0.17289587840E+03 0.  0.
        -24    2    3    3    0    0  0.27018685489E+02  0.21625531712E+02  0.39028866001E+02  0.94838707730E+02  0.79205145762E+02 0.  0.
          6    2    1    2  501    0 -0.12445167729E+03 -0.26565096291E+02 -0.80453117764E+02  0.22881915501E+03  0.17231244070E+03 0.  0.
         24    2    5    5    0    0 -0.32393050952E+02  0.18458948327E+02 -0.89928248392E+02  0.12579574322E+03  0.79670801612E+02 0.  0.
          5    1    5    5  501    0 -0.92058626337E+02 -0.45024044618E+02  0.94751306281E+01  0.10302341179E+03  0.47000000000E+01 0. -1.
        -13    1    6    6    0    0 -0.58781475993E+02  0.96512478800E+01 -0.54391689500E+02  0.80665137403E+02  0.00000000000E+00 0.  1.
         14    1    6    6    0    0  0.26388425041E+02  0.88077004467E+01 -0.35536558892E+02  0.45130605814E+02  0.00000000000E+00 0. -1.
         -5    1    3    3    0  503  0.97432991800E+02  0.49395645793E+01 -0.74295987471E+02  0.12271744352E+03  0.47000000000E+01 0.  1.
         11    1    4    4    0    0  0.70351104347E+01  0.50228536510E+02  0.29477155487E+02  0.58662606099E+02  0.00000000000E+00 0. -1.
        -12    1    4    4    0    0  0.19983575054E+02 -0.28603004798E+02  0.95517105142E+01  0.36176101630E+02  0.00000000000E+00 0.  1.
</event>
<event>
12    1  0.1596842E-001  0.2100203E+03  0.7818608E-02  0.1141935E+00
         21   -1    0    0  501  502  0.00000000000E+00  0.00000000000E+00  0.14461289176E+03  0.14461289176E+03  0.00000000000E+00 0.  1.
         21   -1    0    0  502  503 -0.00000000000E+00 -0.00000000000E+00 -0.11154442394E+04  0.11154442394E+04  0.00000000000E+00 0.  1.
         -6    2    1    2    0  503  0.10724792860E+03  0.56314517016E+02 -0.10239756298E+04  0.10452916504E+04  0.17156660793E+03 0.  0.
        -24    2    3    3    0    0  0.14395803107E+03  0.46223209750E+02 -0.84449769790E+03  0.86175995247E+03  0.81199471050E+02 0.  0.
          6    2    1    2  501    0 -0.10724792860E+03 -0.56314517016E+02  0.53144282139E+02  0.21476548077E+03  0.16919354004E+03 0.  0.
         24    2    5    5    0    0 -0.13046600198E+03 -0.67172172758E+01  0.45154926503E+02  0.15922368681E+03  0.79036171307E+02 0.  0.
          5    1    5    5  501    0  0.23218073378E+02 -0.49597299740E+02  0.79893556355E+01  0.55541793960E+02  0.47000000000E+01 0. -1.
        -11    1    6    6    0    0 -0.78708113558E+02 -0.36082018401E+02  0.49185552050E+02  0.99579604951E+02  0.00000000000E+00 0.  1.
         12    1    6    6    0    0 -0.51757888421E+02  0.29364801125E+02 -0.40306255473E+01  0.59644081863E+02  0.00000000000E+00 0. -1.
         -5    1    3    3    0  503 -0.36710102466E+02  0.10091307265E+02 -0.17947793193E+03  0.18353169795E+03  0.47000000000E+01 0.  1.
         11    1    4    4    0    0  0.98069624133E+02 -0.10471082325E+02 -0.47455419289E+03  0.48469472530E+03  0.00000000000E+00 0. -1.
        -12    1    4    4    0    0  0.45888406935E+02  0.56694292075E+02 -0.36994350500E+03  0.37706522717E+03  0.00000000000E+00 0.  1.
</event>
<event>
12    1  0.1596842E-001  0.1784147E+03  0.7818608E-02  0.1169393E+00
         21   -1    0    0  501  502  0.00000000000E+00  0.00000000000E+00  0.66600982095E+03  0.66600982095E+03  0.00000000000E+00 0.  1.
         21   -1    0    0  502  503 -0.00000000000E+00 -0.00000000000E+00 -0.75318800254E+02  0.75318800254E+02  0.00000000000E+00 0.  1.
         -6    2    1    2    0  503 -0.49431425898E+02 -0.23935781356E+01  0.70967913747E+02  0.19183439273E+03  0.17121563705E+03 0.  0.
        -24    2    3    3    0    0 -0.91053532128E+02  0.25714845365E+01  0.83971900484E+02  0.14769546156E+03  0.80407157938E+02 0.  0.
          6    2    1    2  501    0  0.49431425898E+02  0.23935781356E+01  0.51972310695E+03  0.54949422847E+03  0.17141354714E+03 0.  0.
         24    2    5    5    0    0  0.88584335415E+02 -0.39799489807E+01  0.47496843147E+03  0.48950553663E+03  0.78470599740E+02 0.  0.
          5    1    5    5  501    0 -0.39152909517E+02  0.63735271164E+01  0.44754675478E+02  0.59988691840E+02  0.47000000000E+01 0. -1.
        -13    1    6    6    0    0  0.34975359462E+02  0.31956426742E+02  0.28404113996E+03  0.28796502942E+03  0.00000000000E+00 0.  1.
         14    1    6    6    0    0  0.53608975953E+02 -0.35936375723E+02  0.19092729151E+03  0.20154050721E+03  0.00000000000E+00 0. -1.
         -5    1    3    3    0  503  0.41622106230E+02 -0.49650626721E+01 -0.13003986737E+02  0.44138931177E+02  0.47000000000E+01 0.  1.
         13    1    4    4    0    0 -0.38213116802E+02 -0.31257722958E+02  0.94267237443E+01  0.50260826304E+02  0.00000000000E+00 0. -1.
        -14    1    4    4    0    0 -0.52840415326E+02  0.33829207494E+02  0.74545176740E+02  0.97434635252E+02  0.00000000000E+00 0.  1.
</event>
<event>
12    1  0.1596842E-001  0.1791853E+03  0.7818608E-02  0.1169096E+00
         21   -1    0    0  501  502  0.00000000000E+00  0.00000000000E+00  0.77762818468E+02  0.77762818468E+02  0.00000000000E+00 0.  1.
         21   -1    0    0  502  503 -0.00000000000E+00 -0.00000000000E+00 -0.50788090334E+03  0.50788090334E+03  0.00000000000E+00 0.  1.
         -6    2    1    2    0  503 -0.40631097449E+02  0.20859808691E+02 -0.34579615888E+03  0.38946419014E+03  0.17326671407E+03 0.  0.
        -24    2    3    3    0    0 -0.20210572647E+02 -0.32527318449E+02 -0.31025827243E+03  0.32199408898E+03  0.77158953009E+02 0.  0.
          6    2    1    2  501    0  0.40631097449E+02 -0.20859808691E+02 -0.84321925995E+02  0.19617953167E+03  0.17114381013E+03 0.  0.
         24    2    5    5    0    0  0.28336296867E+02  0.46791291558E+02 -0.14683471255E+02  0.98202810639E+02  0.80223543948E+02 0.  0.
          5    1    5    5  501    0  0.12294800582E+02 -0.67651100249E+02 -0.69638454740E+02  0.97976721035E+02  0.47000000000E+01 0. -1.
        -13    1    6    6    0    0  0.84093439860E+01 -0.21035592335E+02 -0.15595694919E+02  0.27503434534E+02  0.00000000000E+00 0.  1.
         14    1    6    6    0    0  0.19926952881E+02  0.67826883893E+02  0.91222366389E+00  0.70699376106E+02  0.00000000000E+00 0. -1.
         -5    1    3    3    0  503 -0.20420524802E+02  0.53387127140E+02 -0.35537886448E+02  0.67470101161E+02  0.47000000000E+01 0.  1.
         11    1    4    4    0    0 -0.46258873119E+02 -0.32507528538E+02 -0.16497917029E+03  0.17439824937E+03  0.00000000000E+00 0. -1.
        -12    1    4    4    0    0  0.26048300472E+02 -0.19789910935E-01 -0.14527910214E+03  0.14759583960E+03  0.00000000000E+00 0.  1.
</event>
<event>
12    1  0.1596842E-001  0.1836243E+03  0.7818608E-02  0.1164764E+00
         21   -1    0    0  501  502  0.00000000000E+00  0.00000000000E+00  0.71184173992E+02  0.71184173992E+02  0.00000000000E+00 0. -1.
         21   -1    0    0  502  503 -0.00000000000E+00 -0.00000000000E+00 -0.46920510848E+03  0.46920510848E+03  0.00000000000E+00 0. -1.
         -6    2    1    2    0  503 -0.14736669101E+02 -0.54933752498E+02 -0.19357919419E+03  0.26559058480E+03  0.17271527938E+03 0.  0.
        -24    2    3    3    0    0  0.39581911830E+02 -0.52244689251E+01 -0.43210987223E+02  0.98096678125E+02  0.78496789888E+02 0.  0.
          6    2    1    2  501    0  0.14736669101E+02  0.54933752498E+02 -0.20444174031E+03  0.27479869768E+03  0.17459385008E+03 0.  0.
         24    2    5    5    0    0 -0.31103971412E+02  0.87300742955E+02 -0.10949493020E+03  0.16440860237E+03  0.80325413376E+02 0.  0.
          5    1    5    5  501    0  0.45840640512E+02 -0.32366990457E+02 -0.94946810101E+02  0.11039009531E+03  0.47000000000E+01 0. -1.
        -11    1    6    6    0    0 -0.35146079597E+02  0.11895723519E+02 -0.80906803054E+01  0.37976496112E+02  0.00000000000E+00 0.  1.
         12    1    6    6    0    0  0.40421081859E+01  0.75405019436E+02 -0.10140424990E+03  0.12643210626E+03  0.00000000000E+00 0. -1.
         -5    1    3    3    0  503 -0.54318580930E+02 -0.49709283573E+02 -0.15036820696E+03  0.16749390668E+03  0.47000000000E+01 0.  1.
         13    1    4    4    0    0 -0.23948292121E+02 -0.53075638483E+01 -0.12600320752E+02  0.27576421315E+02  0.00000000000E+00 0. -1.
        -14    1    4    4    0    0  0.63530203950E+02  0.83094923184E-01 -0.30610666470E+02  0.70520256810E+02  0.00000000000E+00 0.  1.
</event>
<event>
12    1  0.1596842E-001  0.1879014E+03  0.7818608E-02  0.1161658E+00
         21   -1    0    0  501  502  0.00000000000E+00  0.00000000000E+00  0.71399415106E+02  0.71399415106E+02  0.00000000000E+00 0.  1.
         21   -1    0    0  502  503 -0.00000000000E+00 -0.00000000000E+00 -0.82855104247E+03  0.82855104247E+03  0.00000000000E+00 0.  1.
         -6    2    1    2    0  503 -0.27033919302E+02 -0.63242695235E+02 -0.66712104180E+03  0.69159391756E+03  0.16888218112E+03 0.  0.
        -24    2    3    3    0    0  0.46521814819E+02 -0.18645840168E+02 -0.41164946330E+03  0.42198838549E+03  0.78147106400E+02 0.  0.
          6    2    1    2  501    0  0.27033919302E+02  0.63242695235E+02 -0.90030585566E+02  0.20835654002E+03  0.17486128828E+03 0.  0.
         24    2    5    5    0    0  0.49244468938E+02 -0.17384047716E+02 -0.17040721026E+02  0.97254827523E+02  0.80255170970E+02 0.  0.
          5    1    5    5  501    0 -0.22210549636E+02  0.80626742951E+02 -0.72989864540E+02  0.11110171250E+03  0.47000000000E+01 0. -1.
        -11    1    6    6    0    0 -0.68354736083E+01  0.24561861573E+02 -0.75056941218E+01  0.26577136558E+02  0.00000000000E+00 0.  1.
         12    1    6    6    0    0  0.56079942546E+02 -0.41945909289E+02 -0.95350269045E+01  0.70677690965E+02  0.00000000000E+00 0. -1.
         -5    1    3    3    0  503 -0.73555734121E+02 -0.44596855067E+02 -0.25547157849E+03  0.26960553207E+03  0.47000000000E+01 0.  1.
         13    1    4    4    0    0 -0.49936864638E+01 -0.34242756033E+02 -0.10238349377E+03  0.10807350759E+03  0.00000000000E+00 0. -1.
        -14    1    4    4    0    0  0.51515501283E+02  0.15596915865E+02 -0.30926596953E+03  0.31391487790E+03  0.00000000000E+00 0.  1.
</event>
<event>
12    1  0.1596842E-001  0.2418065E+03  0.7818608E-02  0.1118688E+00
         21   -1    0    0  503  502  0.00000000000E+00  0.00000000000E+00  0.27765159028E+03  0.27765159028E+03  0.00000000000E+00 0.  1.
         21   -1    0    0  501  503 -0.00000000000E+00 -0.00000000000E+00 -0.24607821027E+03  0.24607821027E+03  0.00000000000E+00 0.  1.
          6    2    1    2  501    0 -0.10549012426E+03 -0.13228222388E+03 -0.84325841564E+02  0.25608829618E+03  0.17275304574E+03 0.  0.
         24    2    3    3    0    0 -0.47248464157E+02 -0.10046795420E+03  0.14359803511E+02  0.13707071231E+03  0.79094557516E+02 0.  0.
         -6    2    1    2    0  502  0.10549012426E+03  0.13228222388E+03  0.11589922158E+03  0.26764150437E+03  0.17196683467E+03 0.  0.
        -24    2    5    5    0    0  0.12248415344E+03  0.58087623820E+02  0.10721031418E+03  0.19088720274E+03  0.81039082050E+02 0.  0.
          5    1    3    3  501    0 -0.58241660106E+02 -0.31814269680E+02 -0.98685645075E+02  0.11901758387E+03  0.47000000000E+01 0. -1.
        -13    1    4    4    0    0 -0.62626727019E+02 -0.91083774815E+02 -0.49686609522E+01  0.11064831026E+03  0.00000000000E+00 0.  1.
         14    1    4    4    0    0  0.15378262862E+02 -0.93841793862E+01  0.19328464463E+02  0.26422402046E+02  0.00000000000E+00 0. -1.
         -5    1    5    5    0  502 -0.16994029181E+02  0.74194600061E+02  0.86889073991E+01  0.76754301624E+02  0.47000000000E+01 0.  1.
         13    1    6    6    0    0  0.86562992697E+02  0.34343624015E+02  0.22416788573E+02  0.95786996117E+02  0.00000000000E+00 0. -1.
        -14    1    6    6    0    0  0.35921160747E+02  0.23743999806E+02  0.84793525604E+02  0.95100206627E+02  0.00000000000E+00 0.  1.
</event>
<event>
12    1  0.1596842E-001  0.2606562E+03  0.7818608E-02  0.1108115E+00
         21   -1    0    0  503  502  0.00000000000E+00  0.00000000000E+00  0.35089247054E+03  0.35089247054E+03  0.00000000000E+00 0. -1.
         21   -1    0    0  501  503 -0.00000000000E+00 -0.00000000000E+00 -0.24091472016E+03  0.24091472016E+03  0.00000000000E+00 0.  1.
          6    2    1    2  501    0  0.74887597668E+02 -0.17238045420E+03 -0.85676737660E+02  0.26588949254E+03  0.16743221194E+03 0.  0.
         24    2    3    3    0    0  0.12435373516E+02 -0.37238124096E+02  0.90412392151E+01  0.89375145164E+02  0.79780048670E+02 0.  0.
         -6    2    1    2    0  502 -0.74887597668E+02  0.17238045420E+03  0.19565448805E+03  0.32591769816E+03  0.18060590801E+03 0.  0.
        -24    2    5    5    0    0 -0.10794549629E+02  0.14777713385E+03  0.19554632772E+03  0.25710386323E+03  0.76872795006E+02 0.  0.
          5    1    3    3  501    0  0.62452224152E+02 -0.13514233010E+03 -0.94717976875E+02  0.17651434738E+03  0.47000000000E+01 0. -1.
        -13    1    4    4    0    0  0.24116873051E+02 -0.41385817984E+02 -0.24366776960E+02  0.53741504588E+02  0.00000000000E+00 0.  1.
         14    1    4    4    0    0 -0.11681499534E+02  0.41476938873E+01  0.33408016175E+02  0.35633640576E+02  0.00000000000E+00 0. -1.
         -5    1    5    5    0  502 -0.64093048039E+02  0.24603320349E+02  0.10816032153E+00  0.68813834930E+02  0.47000000000E+01 0.  1.
         13    1    6    6    0    0 -0.17362879986E+02  0.11012093741E+03  0.85159857211E+02  0.14028646313E+03  0.00000000000E+00 0. -1.
        -14    1    6    6    0    0  0.65683303571E+01  0.37656196438E+02  0.11038647051E+03  0.11681740010E+03  0.00000000000E+00 0.  1.
</event>
<event>
12    1  0.1596842E-001  0.1785671E+03  0.7818608E-02  0.1169688E+00
         21   -1    0    0  501  502  0.00000000000E+00  0.00000000000E+00  0.85267716781E+03  0.85267716781E+03  0.00000000000E+00 0.  1.
         21   -1    0    0  502  503 -0.00000000000E+00 -0.00000000000E+00 -0.71140691730E+02  0.71140691730E+02  0.00000000000E+00 0.  1.
         -6    2    1    2    0  503 -0.20324278023E+02  0.43137473102E+02  0.71824556429E+02  0.19247070792E+03  0.17208221476E+03 0.  0.
        -24    2    3    3    0    0 -0.16606890708E+02 -0.38616973702E+02  0.68513565146E+02  0.11043010087E+03  0.75720796965E+02 0.  0.
          6    2    1    2  501    0  0.20324278023E+02 -0.43137473102E+02  0.70971191965E+03  0.73134715163E+03  0.17001096856E+03 0.  0.
         24    2    5    5    0    0  0.69892414909E+01 -0.91761046514E+02  0.55934429591E+03  0.57268213545E+03  0.81423876919E+02 0.  0.
          5    1    5    5  501    0  0.13335036533E+02  0.48623573411E+02  0.15036762374E+03  0.15866501618E+03  0.47000000000E+01 0. -1.
        -11    1    6    6    0    0  0.72189201503E+01 -0.38192156046E+02  0.44180048974E+03  0.44350696311E+03  0.00000000000E+00 0.  1.
         12    1    6    6    0    0 -0.22967865934E+00 -0.53568890467E+02  0.11754380617E+03  0.12917517234E+03  0.00000000000E+00 0. -1.
         -5    1    3    3    0  503 -0.37173873157E+01  0.81754446804E+02  0.33109912829E+01  0.82040607043E+02  0.47000000000E+01 0.  1.
         11    1    4    4    0    0 -0.12339963748E+02 -0.30535418404E+02  0.85233688189E+02  0.91375423855E+02  0.00000000000E+00 0. -1.
        -12    1    4    4    0    0 -0.42669269601E+01 -0.80815552977E+01 -0.16720123043E+02  0.19054677018E+02  0.00000000000E+00 0.  1.
</event>
<event>
12    1  0.1596842E-001  0.2064503E+03  0.7818608E-02  0.1144425E+00
         21   -1    0    0  501  502  0.00000000000E+00  0.00000000000E+00  0.85400470957E+02  0.85400470957E+02  0.00000000000E+00 0.  1.
         21   -1    0    0  502  503 -0.00000000000E+00 -0.00000000000E+00 -0.57793058599E+03  0.57793058599E+03  0.00000000000E+00 0.  1.
         -6    2    1    2    0  503  0.10685217754E+03 -0.39185549734E+02 -0.12356111012E+03  0.24053103957E+03  0.17214801163E+03 0.  0.
        -24    2    3    3    0    0  0.20114659772E+02 -0.61759159299E+02 -0.17088860771E+02  0.10127805138E+03  0.75805153085E+02 0.  0.
          6    2    1    2  501    0 -0.10685217754E+03  0.39185549734E+02 -0.36896900491E+03  0.42280001738E+03  0.17224643089E+03 0.  0.
         24    2    5    5    0    0 -0.10872500299E+03  0.74912883328E+02 -0.35008687687E+03  0.38207441609E+03  0.77375523974E+02 0.  0.
          5    1    5    5  501    0  0.18728254509E+01 -0.35727333594E+02 -0.18882128045E+02  0.40725601290E+02  0.47000000000E+01 0. -1.
        -13    1    6    6    0    0 -0.85045955466E+01  0.34414330272E+02 -0.15540404044E+03  0.15939601645E+03  0.00000000000E+00 0.  1.
         14    1    6    6    0    0 -0.10022040744E+03  0.40498553057E+02 -0.19468283643E+03  0.22267839964E+03  0.00000000000E+00 0. -1.
         -5    1    3    3    0  503  0.86737517768E+02  0.22573609565E+02 -0.10647224935E+03  0.13925298819E+03  0.47000000000E+01 0.  1.
         13    1    4    4    0    0  0.14954273593E+02 -0.59227231529E+01 -0.38131794083E+02  0.41385295314E+02  0.00000000000E+00 0. -1.
        -14    1    4    4    0    0  0.51603861789E+01 -0.55836436147E+02  0.21042933312E+02  0.59892756068E+02  0.00000000000E+00 0.  1.
</event>
<event>
12    1  0.1596842E-001  0.1751182E+03  0.7818608E-02  0.1172767E+00
         21   -1    0    0  501  502  0.00000000000E+00  0.00000000000E+00  0.19376383981E+03  0.19376383981E+03  0.00000000000E+00 0. -1.
         21   -1    0    0  502  503 -0.00000000000E+00 -0.00000000000E+00 -0.15771627752E+03  0.15771627752E+03  0.00000000000E+00 0. -1.
         -6    2    1    2    0  503 -0.50151539284E+01  0.30205577829E+02  0.17357038350E+02  0.17536731504E+03  0.17179900961E+03 0.  0.
        -24    2    3    3    0    0  0.38332856518E+02  0.44034770596E+02 -0.35860776410E+02  0.10519237372E+03  0.79818364387E+02 0.  0.
          6    2    1    2  501    0  0.50151539284E+01 -0.30205577829E+02  0.18690523935E+02  0.17611280229E+03  0.17242057518E+03 0.  0.
         24    2    5    5    0    0 -0.59123074952E+02  0.22003734378E+01  0.27416791445E+02  0.10357249745E+03  0.80468640726E+02 0.  0.
          5    1    5    5  501    0  0.64138228880E+02 -0.32405951267E+02 -0.87262675097E+01  0.72540304838E+02  0.47000000000E+01 0. -1.
        -13    1    6    6    0    0 -0.45597961349E+02  0.77411639818E+01 -0.22590768947E+02  0.51472735896E+02  0.00000000000E+00 0.  1.
         14    1    6    6    0    0 -0.13525113602E+02 -0.55407905440E+01  0.50007560392E+02  0.52099761556E+02  0.00000000000E+00 0. -1.
         -5    1    3    3    0  503 -0.43348010446E+02 -0.13829192767E+02  0.53217814760E+02  0.70174941326E+02  0.47000000000E+01 0.  1.
         13    1    4    4    0    0  0.22501150572E+02  0.45632987472E+02  0.14069029094E+02  0.52788340591E+02  0.00000000000E+00 0. -1.
        -14    1    4    4    0    0  0.15831705946E+02 -0.15982168757E+01 -0.49929805504E+02  0.52404033127E+02  0.00000000000E+00 0.  1.
</event>
<event>
12    1  0.1596842E-001  0.2039606E+03  0.7818608E-02  0.1146450E+00
         21   -1    0    0  503  502  0.00000000000E+00  0.00000000000E+00  0.42454161430E+03  0.42454161430E+03  0.00000000000E+00 0.  1.
         21   -1    0    0  501  503 -0.00000000000E+00 -0.00000000000E+00 -0.99591003450E+02  0.99591003450E+02  0.00000000000E+00 0.  1.
          6    2    1    2  501    0 -0.60072768174E+02  0.89754444575E+02  0.19599311971E+03  0.28286607262E+03  0.17301824837E+03 0.  0.
         24    2    3    3    0    0 -0.70600411023E+02  0.12359519207E+03  0.18203196286E+03  0.24448598200E+03  0.79859691679E+02 0.  0.
         -6    2    1    2    0  502  0.60072768174E+02 -0.89754444575E+02  0.12895749115E+03  0.24126654514E+03  0.17295928273E+03 0.  0.
        -24    2    5    5    0    0  0.95712994044E+02 -0.99277804269E+02  0.12773113629E+03  0.20405748675E+03  0.79417599252E+02 0.  0.
          5    1    3    3  501    0  0.10527642849E+02 -0.33840747494E+02  0.13961156853E+02  0.38380090615E+02  0.47000000000E+01 0. -1.
        -13    1    4    4    0    0  0.14585679709E+02  0.42681844969E+02  0.41287881896E+02  0.61148762326E+02  0.00000000000E+00 0.  1.
         14    1    4    4    0    0 -0.85186090733E+02  0.80913347099E+02  0.14074408096E+03  0.18333721968E+03  0.00000000000E+00 0. -1.
         -5    1    5    5    0  502 -0.35640225870E+02  0.95233596943E+01  0.12263548560E+01  0.37209058389E+02  0.47000000000E+01 0.  1.
         11    1    6    6    0    0 -0.81299045356E+01  0.50702178678E+01  0.68997411197E+00  0.96061709989E+01  0.00000000000E+00 0. -1.
        -12    1    6    6    0    0  0.10384289858E+03 -0.10434802214E+03  0.12704116218E+03  0.19445131575E+03  0.00000000000E+00 0.  1.
</event>
<event>
12    1  0.1596842E-001  0.2081275E+03  0.7818608E-02  0.1143166E+00
         21   -1    0    0  501  502  0.00000000000E+00  0.00000000000E+00  0.53581949361E+03  0.53581949361E+03  0.00000000000E+00 0. -1.
         21   -1    0    0  502  503 -0.00000000000E+00 -0.00000000000E+00 -0.11670648219E+03  0.11670648219E+03  0.00000000000E+00 0.  1.
         -6    2    1    2    0  503  0.81626012889E+02  0.85435778943E+02  0.28352725246E+02  0.21004984423E+03  0.17133295576E+03 0.  0.
        -24    2    3    3    0    0  0.20138870087E+00  0.26741950156E+02  0.62062249780E+02  0.10406231192E+03  0.79133238643E+02 0.  0.
          6    2    1    2  501    0 -0.81626012889E+02 -0.85435778943E+02  0.39076028618E+03  0.44247613158E+03  0.17067351130E+03 0.  0.
         24    2    5    5    0    0 -0.10942472660E+02 -0.79087899981E+01  0.88423075360E+02  0.12241914303E+03  0.83579421252E+02 0.  0.
          5    1    5    5  501    0 -0.70683540229E+02 -0.77526988945E+02  0.30233721081E+03  0.32005698855E+03  0.47000000000E+01 0. -1.
        -11    1    6    6    0    0 -0.45987084849E+02 -0.11006163766E+02  0.64076600148E+02  0.79635157439E+02  0.00000000000E+00 0.  1.
         12    1    6    6    0    0  0.35044612189E+02  0.30973737677E+01  0.24346475212E+02  0.42783985590E+02  0.00000000000E+00 0. -1.
         -5    1    3    3    0  503  0.81424624188E+02  0.58693828787E+02 -0.33709524534E+02  0.10598753231E+03  0.47000000000E+01 0.  1.
         13    1    4    4    0    0  0.35302432841E+02 -0.41894209304E+01  0.18227967869E+02  0.39950867636E+02  0.00000000000E+00 0. -1.
        -14    1    4    4    0    0 -0.35101044141E+02  0.30931371087E+02  0.43834281910E+02  0.64111444280E+02  0.00000000000E+00 0.  1.
</event>
<event>
12    1  0.1596842E-001  0.2441294E+03  0.7818608E-02  0.1117488E+00
         21   -1    0    0  501  502  0.00000000000E+00  0.00000000000E+00  0.63257970611E+03  0.63257970611E+03  0.00000000000E+00 0.  1.
         21   -1    0    0  502  503 -0.00000000000E+00 -0.00000000000E+00 -0.12638505387E+03  0.12638505387E+03  0.00000000000E+00 0. -1.
         -6    2    1    2    0  503 -0.28321274631E+02 -0.17033594183E+03  0.57787148158E+02  0.24840774783E+03  0.16896930790E+03 0.  0.
        -24    2    3    3    0    0 -0.32902911510E+01 -0.18983824972E+02  0.45616851353E+02  0.94446000836E+02  0.80423493584E+02 0.  0.
          6    2    1    2  501    0  0.28321274631E+02  0.17033594183E+03  0.44840750409E+03  0.51055701215E+03  0.17257678077E+03 0.  0.
         24    2    5    5    0    0 -0.23970380397E+01  0.53539675969E+02  0.32726437770E+03  0.33943503950E+03  0.72401177051E+02 0.  0.
          5    1    5    5  501    0  0.30718312670E+02  0.11679626586E+03  0.12114312639E+03  0.17112197265E+03  0.47000000000E+01 0. -1.
        -13    1    6    6    0    0  0.42073794992E+01  0.62401964224E+02  0.32034917486E+03  0.32639745865E+03  0.00000000000E+00 0.  1.
         14    1    6    6    0    0 -0.66044175389E+01 -0.88622882549E+01  0.69152028367E+01  0.13037580850E+02  0.00000000000E+00 0. -1.
         -5    1    3    3    0  503 -0.25030983480E+02 -0.15135211686E+03  0.12170296805E+02  0.15396174699E+03  0.47000000000E+01 0.  1.
         13    1    4    4    0    0  0.35755385078E+02  0.44406822651E+01  0.27971624250E+02  0.45613364097E+02  0.00000000000E+00 0. -1.
        -14    1    4    4    0    0 -0.39045676229E+02 -0.23424507237E+02  0.17645227103E+02  0.48832636740E+02  0.00000000000E+00 0.  1.
</event>
<event>
12    1  0.1596842E-001  0.2221481E+03  0.7818608E-02  0.1132658E+00
         21   -1    0    0  503  502  0.00000000000E+00  0.00000000000E+00  0.61643158324E+02  0.61643158324E+02  0.00000000000E+00 0. -1.
         21   -1    0    0  501  503 -0.00000000000E+00 -0.00000000000E+00 -0.79471027654E+03  0.79471027654E+03  0.00000000000E+00 0. -1.
          6    2    1    2  501    0  0.13398401128E+03 -0.38019614826E+02 -0.35109824217E+03  0.41547533379E+03  0.17306811070E+03 0.  0.
         24    2    3    3    0    0 -0.14666692757E+01  0.11662910047E+01 -0.11897881292E+03  0.14384333731E+03  0.80817302660E+02 0.  0.
         -6    2    1    2    0  502 -0.13398401128E+03  0.38019614826E+02 -0.38196887605E+03  0.44087810108E+03  0.17051707056E+03 0.  0.
        -24    2    5    5    0    0 -0.15242868281E+03  0.67673009277E+02 -0.32692228570E+03  0.37551949935E+03  0.79514614903E+02 0.  0.
          5    1    3    3  501    0  0.13545068055E+03 -0.39185905831E+02 -0.23211942925E+03  0.27163199648E+03  0.47000000000E+01 0. -1.
        -11    1    4    4    0    0 -0.13114843705E+02 -0.36799867613E+02 -0.42896893249E+02  0.58020451844E+02  0.00000000000E+00 0.  1.
         12    1    4    4    0    0  0.11648174429E+02  0.37966158618E+02 -0.76081919674E+02  0.85822885462E+02  0.00000000000E+00 0. -1.
         -5    1    5    5    0  502  0.18444671529E+02 -0.29653394451E+02 -0.55046590357E+02  0.65358601731E+02  0.47000000000E+01 0.  1.
         11    1    6    6    0    0 -0.97588573034E+02  0.62714019805E+02 -0.14640804793E+03  0.18679372143E+03  0.00000000000E+00 0. -1.
        -12    1    6    6    0    0 -0.54840109772E+02  0.49589894721E+01 -0.18051423777E+03  0.18872577793E+03  0.00000000000E+00 0.  1.
</event>
<event>
12    1  0.1596842E-001  0.2064586E+03  0.7818608E-02  0.1144754E+00
         21   -1    0    0  503  502  0.00000000000E+00  0.00000000000E+00  0.96972411960E+02  0.96972411960E+02  0.00000000000E+00 0.  1.
         21   -1    0    0  501  503 -0.00000000000E+00 -0.00000000000E+00 -0.47277326114E+03  0.47277326114E+03  0.00000000000E+00 0. -1.
          6    2    1    2  501    0  0.62928064882E+02  0.94406911222E+02 -0.10905112454E+03  0.23348937113E+03  0.17248922410E+03 0.  0.
         24    2    3    3    0    0  0.86568344465E+02  0.25338650891E+02 -0.22908757449E+02  0.12047660720E+03  0.76509321138E+02 0.  0.
         -6    2    1    2    0  502 -0.62928064882E+02 -0.94406911222E+02 -0.26674972464E+03  0.33625630197E+03  0.17041208521E+03 0.  0.
        -24    2    5    5    0    0 -0.61992515328E+02 -0.22810405442E+02 -0.24454776639E+03  0.26114337470E+03  0.63473345211E+02 0.  0.
          5    1    3    3  501    0 -0.23640279583E+02  0.69068260331E+02 -0.86142367092E+02  0.11301276393E+03  0.47000000000E+01 0. -1.
        -11    1    4    4    0    0  0.86986448537E+02  0.28023683636E+02 -0.42436125067E+02  0.10076107276E+03  0.00000000000E+00 0.  1.
         12    1    4    4    0    0 -0.41810407154E+00 -0.26850327453E+01  0.19527367618E+02  0.19715534432E+02  0.00000000000E+00 0. -1.
         -5    1    5    5    0  502 -0.93554955393E+00 -0.71596505780E+02 -0.22201958252E+02  0.75112927270E+02  0.47000000000E+01 0.  1.
         11    1    6    6    0    0 -0.29905956245E+02  0.19126430331E+02 -0.65873661610E+02  0.74829979620E+02  0.00000000000E+00 0. -1.
        -12    1    6    6    0    0 -0.32086559083E+02 -0.41936835773E+02 -0.17867410478E+03  0.18631339508E+03  0.00000000000E+00 0.  1.
</event>
<event>
12    1  0.1596842E-001  0.2651133E+03  0.7818608E-02  0.1104784E+00
         21   -1    0    0  503  502  0.00000000000E+00  0.00000000000E+00  0.33323375354E+02  0.33323375354E+02  0.00000000000E+00 0. -1.
         21   -1    0    0  501  503 -0.00000000000E+00 -0.00000000000E+00 -0.21863824436E+04  0.21863824436E+04  0.00000000000E+00 0.  1.
          6    2    1    2  501    0 -0.14783680296E+03 -0.13478264606E+03 -0.13380961874E+04  0.13641064660E+04  0.17396253029E+03 0.  0.
         24    2    3    3    0    0 -0.70277219122E+02 -0.98815113020E+02 -0.11278371700E+04  0.11370820249E+04  0.78965405072E+02 0.  0.
         -6    2    1    2    0  502  0.14783680296E+03  0.13478264606E+03 -0.81496288080E+03  0.85559935287E+03  0.16692415514E+03 0.  0.
        -24    2    5    5    0    0  0.10182893947E+03  0.46429258137E+02 -0.63749566219E+03  0.65203180059E+03  0.78866600995E+02 0.  0.
          5    1    3    3  501    0 -0.77559583842E+02 -0.35967533036E+02 -0.21025901738E+03  0.22702444112E+03  0.47000000000E+01 0. -1.
        -13    1    4    4    0    0 -0.41066788053E+02 -0.74921930750E+00 -0.39640063312E+03  0.39852290316E+03  0.00000000000E+00 0.  1.
         14    1    4    4    0    0 -0.29210431070E+02 -0.98065893712E+02 -0.73143653691E+03  0.73855912175E+03  0.00000000000E+00 0. -1.
         -5    1    5    5    0  502  0.46007863490E+02  0.88353387919E+02 -0.17746721861E+03  0.20356755228E+03  0.47000000000E+01 0.  1.
         13    1    6    6    0    0  0.24769998403E+02  0.36555588192E+01 -0.34494197231E+02  0.42623533098E+02  0.00000000000E+00 0. -1.
        -14    1    6    6    0    0  0.77058941071E+02  0.42773699317E+02 -0.60300146496E+03  0.60940826750E+03  0.00000000000E+00 0.  1.
</event>
<event>
12    1  0.1596842E-001  0.1809191E+03  0.7818608E-02  0.1167119E+00
         21   -1    0    0  503  502  0.00000000000E+00  0.00000000000E+00  0.46847822403E+03  0.46847822403E+03  0.00000000000E+00 0.  1.
         21   -1    0    0  501  503 -0.00000000000E+00 -0.00000000000E+00 -0.73342139229E+02  0.73342139229E+02  0.00000000000E+00 0.  1.
          6    2    1    2  501    0  0.79504996154E+01  0.52665056163E+02  0.13635377319E+03  0.22654819689E+03  0.17290146172E+03 0.  0.
         24    2    3    3    0    0  0.42419498286E+02  0.43277248668E+02  0.16870726511E+02  0.10175023519E+03  0.79975964275E+02 0.  0.
         -6    2    1    2    0  502 -0.79504996154E+01 -0.52665056163E+02  0.25878231161E+03  0.31527216637E+03  0.17202161348E+03 0.  0.
        -24    2    5    5    0    0 -0.61739874677E+02 -0.73509290308E+02  0.19205224001E+03  0.22693886902E+03  0.73496663119E+02 0.  0.
          5    1    3    3  501    0 -0.34468998670E+02  0.93878074956E+01  0.11948304668E+03  0.12479796170E+03  0.47000000000E+01 0. -1.
        -11    1    4    4    0    0  0.32024467556E+02 -0.18723634951E+02  0.20064375155E+01  0.37150596489E+02  0.00000000000E+00 0.  1.
         12    1    4    4    0    0  0.10395030730E+02  0.62000883618E+02  0.14864288995E+02  0.64599638704E+02  0.00000000000E+00 0. -1.
         -5    1    5    5    0  502  0.53789375062E+02  0.20844234145E+02  0.66730071600E+02  0.88333297359E+02  0.47000000000E+01 0.  1.
         13    1    6    6    0    0  0.16102600884E+02 -0.23113378601E+02  0.44909339624E+02  0.53012930602E+02  0.00000000000E+00 0. -1.
        -14    1    6    6    0    0 -0.77842475561E+02 -0.50395911708E+02  0.14714290039E+03  0.17392593841E+03  0.00000000000E+00 0.  1.
</event>
<event>
12    1  0.1596842E-001  0.1984108E+03  0.7818608E-02  0.1151102E+00
         21   -1    0    0  501  502  0.00000000000E+00  0.00000000000E+00  0.77508605860E+02  0.77508605860E+02  0.00000000000E+00 0. -1.
         21   -1    0    0  502  503 -0.00000000000E+00 -0.00000000000E+00 -0.97134608155E+03  0.97134608155E+03  0.00000000000E+00 0. -1.
         -6    2    1    2    0  503 -0.98001489765E+02  0.20746178246E+02 -0.80926853015E+03  0.83323609110E+03  0.17126626555E+03 0.  0.
        -24    2    3    3    0    0 -0.11630989887E+03 -0.26174215180E+02 -0.67358411526E+03  0.68842907606E+03  0.77498066498E+02 0.  0.
          6    2    1    2  501    0  0.98001489765E+02 -0.20746178246E+02 -0.84568945544E+02  0.21561859631E+03  0.17118637976E+03 0.  0.
         24    2    5    5    0    0 -0.12961712057E+02 -0.32805473757E+02 -0.31635561253E+02  0.91997028860E+02  0.78857082721E+02 0.  0.
          5    1    5    5  501    0  0.11096320182E+03  0.12059295512E+02 -0.52933384291E+02  0.12362156745E+03  0.47000000000E+01 0. -1.
        -11    1    6    6    0    0 -0.75316476082E+01  0.22904994206E+02  0.56199488786E+01  0.24757792726E+02  0.00000000000E+00 0.  1.
         12    1    6    6    0    0 -0.54300644485E+01 -0.55710467963E+02 -0.37255510132E+02  0.67239236134E+02  0.00000000000E+00 0. -1.
         -5    1    3    3    0  503  0.18308409102E+02  0.46920393426E+02 -0.13568441488E+03  0.14480701504E+03  0.47000000000E+01 0.  1.
         13    1    4    4    0    0 -0.68201082053E+02  0.22761474346E+02 -0.39706538998E+03  0.40352248540E+03  0.00000000000E+00 0. -1.
        -14    1    4    4    0    0 -0.48108816814E+02 -0.48935689526E+02 -0.27651872529E+03  0.28490659065E+03  0.00000000000E+00 0.  1.
</event>
<event>
12    1  0.1596842E-001  0.1756752E+03  0.7818608E-02  0.1172269E+00
         21   -1    0    0  503  502  0.00000000000E+00  0.00000000000E+00  0.12441154635E+03  0.12441154635E+03  0.00000000000E+00 0. -1.
         21   -1    0    0  501  503 -0.00000000000E+00 -0.00000000000E+00 -0.25492325616E+03  0.25492325616E+03  0.00000000000E+00 0.  1.
          6    2    1    2  501    0 -0.61529360668E+01  0.36287442973E+02 -0.31675597027E+02  0.17850801981E+03  0.17177640277E+03 0.  0.
         24    2    3    3    0    0 -0.43121436294E+02 -0.31632657171E+02 -0.32245594441E+02  0.10103399248E+03  0.79422956434E+02 0.  0.
         -6    2    1    2    0  502  0.61529360668E+01 -0.36287442973E+02 -0.98836112780E+02  0.20082678270E+03  0.17090401494E+03 0.  0.
        -24    2    5    5    0    0  0.63033064346E+02 -0.48136272885E+02 -0.32958092430E+02  0.11286231642E+03  0.73221572247E+02 0.  0.
          5    1    3    3  501    0  0.36968500227E+02  0.67920100143E+02  0.56999741442E+00  0.77474027323E+02  0.47000000000E+01 0. -1.
        -11    1    4    4    0    0 -0.66182126258E+02 -0.18908923050E+02 -0.18251528461E+02  0.71209125104E+02  0.00000000000E+00 0.  1.
         12    1    4    4    0    0  0.23060689964E+02 -0.12723734121E+02 -0.13994065980E+02  0.29824867380E+02  0.00000000000E+00 0. -1.
         -5    1    5    5    0  502 -0.56880128279E+02  0.11848829912E+02 -0.65878020351E+02  0.87964466285E+02  0.47000000000E+01 0.  1.
         13    1    6    6    0    0 -0.48917234021E+01 -0.10640829565E+02  0.16955524714E+02  0.20606941306E+02  0.00000000000E+00 0. -1.
        -14    1    6    6    0    0  0.67924787748E+02 -0.37495443320E+02 -0.49913617144E+02  0.92255375111E+02  0.00000000000E+00 0.  1.
</event>
<event>
12    1  0.1596842E-001  0.2643481E+03  0.7818608E-02  0.1104624E+00
         21   -1    0    0  501  502  0.00000000000E+00  0.00000000000E+00  0.66019659132E+02  0.66019659132E+02  0.00000000000E+00 0. -1.
         21   -1    0    0  502  503 -0.00000000000E+00 -0.00000000000E+00 -0.17260306945E+04  0.17260306945E+04  0.00000000000E+00 0. -1.
         -6    2    1    2    0  503  0.19413564698E+03 -0.54310992200E+02 -0.13875575947E+04  0.14124310909E+04  0.17031492701E+03 0.  0.
        -24    2    3    3    0    0  0.13594543934E+03 -0.90707487021E+02 -0.11757200389E+04  0.11897024551E+04  0.79782900468E+02 0.  0.
          6    2    1    2  501    0 -0.19413564698E+03  0.54310992200E+02 -0.27245344063E+03  0.37961926279E+03  0.17100167855E+03 0.  0.
         24    2    5    5    0    0 -0.50835784309E+02 -0.23171090293E+02 -0.12837869810E+03  0.16209237897E+03  0.81680308532E+02 0.  0.
          5    1    5    5  501    0 -0.14329986267E+03  0.77482082493E+02 -0.14407474253E+03  0.21752688382E+03  0.47000000000E+01 0. -1.
        -11    1    6    6    0    0  0.13166401225E+02  0.84178306948E+01 -0.64309316406E+02  0.66180829335E+02  0.00000000000E+00 0.  1.
         12    1    6    6    0    0 -0.64002185534E+02 -0.31588920987E+02 -0.64069381691E+02  0.95911549631E+02  0.00000000000E+00 0. -1.
         -5    1    3    3    0  503  0.58190207643E+02  0.36396494821E+02 -0.21183755585E+03  0.22272863572E+03  0.47000000000E+01 0.  1.
         11    1    4    4    0    0  0.93563353676E+02 -0.14539888500E+02 -0.61901389223E+03  0.62621378800E+03  0.00000000000E+00 0. -1.
        -12    1    4    4    0    0  0.42382085664E+02 -0.76167598521E+02 -0.55670614667E+03  0.56348866714E+03  0.00000000000E+00 0.  1.
</event>
<event>
12    1  0.1596842E-001  0.1912137E+03  0.7818608E-02  0.1157564E+00
         21   -1    0    0  501  502  0.00000000000E+00  0.00000000000E+00  0.59078108664E+03  0.59078108664E+03  0.00000000000E+00 0. -1.
         21   -1    0    0  502  503 -0.00000000000E+00 -0.00000000000E+00 -0.74708119655E+02  0.74708119655E+02  0.00000000000E+00 0. -1.
         -6    2    1    2    0  503  0.83226030944E+02 -0.14165386987E+02  0.11822996483E+03  0.22408040432E+03  0.17060619157E+03 0.  0.
        -24    2    3    3    0    0  0.15563841759E+02  0.22008453059E+02  0.92079468300E+02  0.14288522579E+03  0.10588179300E+03 0.  0.
          6    2    1    2  501    0 -0.83226030944E+02  0.14165386987E+02  0.39784300216E+03  0.44140880198E+03  0.17156761255E+03 0.  0.
         24    2    5    5    0    0 -0.46046460388E+02 -0.44395183082E+02  0.13257650052E+03  0.16718249447E+03  0.79260640751E+02 0.  0.
          5    1    5    5  501    0 -0.37179570556E+02  0.58560570070E+02  0.26526650164E+03  0.27422630750E+03  0.47000000000E+01 0. -1.
        -13    1    6    6    0    0  0.20135717087E+02 -0.13209736037E+02  0.14010968744E+02  0.27861289883E+02  0.00000000000E+00 0.  1.
         14    1    6    6    0    0 -0.66182177475E+02 -0.31185447045E+02  0.11856553177E+03  0.13932120459E+03  0.00000000000E+00 0. -1.
         -5    1    3    3    0  503  0.67662189185E+02 -0.36173840046E+02  0.26150496527E+02  0.81195178537E+02  0.47000000000E+01 0.  1.
         13    1    4    4    0    0  0.55813267419E+01  0.53043868246E+02  0.95965063905E+01  0.54193137034E+02  0.00000000000E+00 0. -1.
        -14    1    4    4    0    0  0.99825150168E+01 -0.31035415187E+02  0.82482961910E+02  0.88692088753E+02  0.00000000000E+00 0.  1.
</event>
<event>
12    1  0.1596842E-001  0.1910091E+03  0.7818608E-02  0.1158443E+00
         21   -1    0    0  501  502  0.00000000000E+00  0.00000000000E+00  0.28045903248E+03  0.28045903248E+03  0.00000000000E+00 0. -1.
         21   -1    0    0  502  503 -0.00000000000E+00 -0.00000000000E+00 -0.18015328011E+03  0.18015328011E+03  0.00000000000E+00 0. -1.
         -6    2    1    2    0  503 -0.80785685449E+02  0.15515567228E+02 -0.74066841625E+02  0.20486676267E+03  0.17238745203E+03 0.  0.
        -24    2    3    3    0    0 -0.29315982730E+02  0.49448926473E+02 -0.97420301163E+02  0.13877533175E+03  0.80394368286E+02 0.  0.
          6    2    1    2  501    0  0.80785685449E+02 -0.15515567228E+02  0.17437259399E+03  0.25574554993E+03  0.16802656031E+03 0.  0.
         24    2    5    5    0    0  0.71606092249E+02  0.49744444636E+02  0.89321355537E+02  0.14804718762E+03  0.79609817162E+02 0.  0.
          5    1    5    5  501    0  0.91795932006E+01 -0.65260011864E+02  0.85051238457E+02  0.10769836230E+03  0.47000000000E+01 0. -1.
        -13    1    6    6    0    0  0.41915872915E+02 -0.15617633137E+02  0.22936743281E+02  0.50268728444E+02  0.00000000000E+00 0.  1.
         14    1    6    6    0    0  0.29690219333E+02  0.65362077773E+02  0.66384612257E+02  0.97778459178E+02  0.00000000000E+00 0. -1.
         -5    1    3    3    0  503 -0.51469702720E+02 -0.33933359245E+02  0.23353459538E+02  0.66091430913E+02  0.47000000000E+01 0.  1.
         11    1    4    4    0    0 -0.35345059024E+02 -0.67331024463E+01 -0.15312255906E+02  0.39103363627E+02  0.00000000000E+00 0. -1.
        -12    1    4    4    0    0  0.60290762948E+01  0.56182028919E+02 -0.82108045257E+02  0.99671968127E+02  0.00000000000E+00 0.  1.
</event>
<event>
12    1  0.1596842E-001  0.2485862E+03  0.7818608E-02  0.1114415E+00
         21   -1    0    0  503  502  0.00000000000E+00  0.00000000000E+00  0.68150421790E+03  0.68150421790E+03  0.00000000000E+00 0. -1.
         21   -1    0    0  501  503 -0.00000000000E+00 -0.00000000000E+00 -0.10667050678E+03  0.10667050678E+03  0.00000000000E+00 0. -1.
          6    2    1    2  501    0  0.16998952625E+03 -0.57735367562E+02  0.44167461347E+03  0.50617041521E+03  0.17000650971E+03 0.  0.
         24    2    3    3    0    0  0.14255677005E+03 -0.62232216542E+01  0.21058454049E+03  0.26777836601E+03  0.83655504520E+02 0.  0.
         -6    2    1    2    0  502 -0.16998952625E+03  0.57735367562E+02  0.13315909765E+03  0.28200430947E+03  0.17194555408E+03 0.  0.
        -24    2    5    5    0    0 -0.19061441319E+03  0.76131319754E+02  0.11570008462E+03  0.24897849904E+03  0.80460866521E+02 0.  0.
          5    1    3    3  501    0  0.27432756208E+02 -0.51512145908E+02  0.23109007298E+03  0.23839204920E+03  0.47000000000E+01 0. -1.
        -13    1    4    4    0    0  0.65530731752E+02  0.18429066189E+02  0.15600357416E+03  0.17020876133E+03  0.00000000000E+00 0.  1.
         14    1    4    4    0    0  0.77026038294E+02 -0.24652287843E+02  0.54580966329E+02  0.97569604676E+02  0.00000000000E+00 0. -1.
         -5    1    5    5    0  502  0.20624886938E+02 -0.18395952192E+02  0.17459013029E+02  0.33025810424E+02  0.47000000000E+01 0.  1.
         11    1    6    6    0    0 -0.12463240514E+03  0.75342115562E+02  0.11045438445E+03  0.18278359290E+03  0.00000000000E+00 0. -1.
        -12    1    6    6    0    0 -0.65982008051E+02  0.78920419192E+00  0.52457001742E+01  0.66194906148E+02  0.00000000000E+00 0.  1.
</event>
<event>
12    1  0.1596842E-001  0.2028006E+03  0.7818608E-02  0.1150787E+00
         21   -1    0    0  501  502  0.00000000000E+00  0.00000000000E+00  0.47279430777E+03  0.47279430777E+03  0.00000000000E+00 0.  1.
         21   -1    0    0  502  503 -0.00000000000E+00 -0.00000000000E+00 -0.10661540928E+03  0.10661540928E+03  0.00000000000E+00 0.  1.
         -6    2    1    2    0  503  0.48327679486E+02 -0.56491104752E+02  0.32112137159E+03  0.37166400357E+03  0.17172182952E+03 0.  0.
        -24    2    3    3    0    0  0.94577976521E+02 -0.41224195665E+02  0.27438076012E+03  0.30399611421E+03  0.80525821819E+02 0.  0.
          6    2    1    2  501    0 -0.48327679486E+02  0.56491104752E+02  0.45057526893E+02  0.20774571348E+03  0.18868304434E+03 0.  0.
         24    2    5    5    0    0 -0.81566612547E+02  0.65906626783E+02 -0.18283286805E+02  0.13544338015E+03  0.83748641260E+02 0.  0.
          5    1    5    5  501    0  0.33238933062E+02 -0.94155220308E+01  0.63340813697E+02  0.72302333337E+02  0.47000000000E+01 0. -1.
        -11    1    6    6    0    0 -0.39697664329E+02  0.14686020515E+02 -0.47064634866E+02  0.63298211718E+02  0.00000000000E+00 0.  1.
         12    1    6    6    0    0 -0.41868948219E+02  0.51220606268E+02  0.28781348061E+02  0.72145168428E+02  0.00000000000E+00 0. -1.
         -5    1    3    3    0  503 -0.46250297036E+02 -0.15266909087E+02  0.46740611471E+02  0.67667889354E+02  0.47000000000E+01 0.  1.
         13    1    4    4    0    0  0.76868074844E+02 -0.36262126014E+02  0.11210334054E+03  0.14067978417E+03  0.00000000000E+00 0. -1.
        -14    1    4    4    0    0  0.17709901677E+02 -0.49620696506E+01  0.16227741958E+03  0.16331633005E+03  0.00000000000E+00 0.  1.
</event>
<event>
12    1  0.1596842E-001  0.2119591E+03  0.7818608E-02  0.1140084E+00
         21   -1    0    0  503  502  0.00000000000E+00  0.00000000000E+00  0.40346942218E+02  0.40346942218E+02  0.00000000000E+00 0. -1.
         21   -1    0    0  501  503 -0.00000000000E+00 -0.00000000000E+00 -0.16240369514E+04  0.16240369514E+04  0.00000000000E+00 0.  1.
          6    2    1    2  501    0 -0.52906335258E+02 -0.11129101615E+03 -0.32491231265E+03  0.38793642106E+03  0.17245835814E+03 0.  0.
         24    2    3    3    0    0  0.29078283640E+02 -0.89270519691E+02 -0.22525278664E+03  0.25693836335E+03  0.80397340802E+02 0.  0.
         -6    2    1    2    0  502  0.52906335258E+02  0.11129101615E+03 -0.12587776966E+04  0.12764474726E+04  0.17208163851E+03 0.  0.
        -24    2    5    5    0    0  0.54798453882E+02  0.64498421540E+01 -0.41662640676E+03  0.42778020162E+03  0.79836502186E+02 0.  0.
          5    1    3    3  501    0 -0.81984618899E+02 -0.22020496458E+02 -0.99659526009E+02  0.13099805771E+03  0.47000000000E+01 0. -1.
        -11    1    4    4    0    0 -0.18790409324E+02 -0.55328344375E+02 -0.15350127438E+03  0.16424660243E+03  0.00000000000E+00 0.  1.
         12    1    4    4    0    0  0.47868692964E+02 -0.33942175316E+02 -0.71751512262E+02  0.92691760924E+02  0.00000000000E+00 0. -1.
         -5    1    5    5    0  502 -0.18921186237E+01  0.10484117400E+03 -0.84215128981E+03  0.84866727097E+03  0.47000000000E+01 0.  1.
         13    1    6    6    0    0 -0.69314438551E+01 -0.13745855712E+02 -0.22340479130E+03  0.22393457580E+03  0.00000000000E+00 0. -1.
        -14    1    6    6    0    0  0.61729897737E+02  0.20195697866E+02 -0.19322161546E+03  0.20384562582E+03  0.00000000000E+00 0.  1.
</event>
<event>
12    1  0.1596842E-001  0.1878789E+03  0.7818608E-02  0.1160671E+00
         21   -1    0    0  503  502  0.00000000000E+00  0.00000000000E+00  0.29835174695E+03  0.29835174695E+03  0.00000000000E+00 0.  1.
         21   -1    0    0  501  503 -0.00000000000E+00 -0.00000000000E+00 -0.20563275724E+03  0.20563275724E+03  0.00000000000E+00 0.  1.
          6    2    1    2  501    0  0.63875974096E+02  0.30261938882E+02 -0.11848998260E+03  0.22212236136E+03  0.17407625463E+03 0.  0.
         24    2    3    3    0    0  0.40511117753E+02 -0.50649888649E+02 -0.56686988604E+02  0.11755496485E+03  0.79994957348E+02 0.  0.
         -6    2    1    2    0  502 -0.63875974096E+02 -0.30261938882E+02  0.21120897230E+03  0.28186214283E+03  0.17274580334E+03 0.  0.
        -24    2    5    5    0    0 -0.22900937825E+02 -0.72248335232E+02  0.73565172760E+02  0.13216338991E+03  0.79442130456E+02 0.  0.
          5    1    3    3  501    0  0.23364856343E+02  0.80911827532E+02 -0.61802993994E+02  0.10456739651E+03  0.47000000000E+01 0. -1.
        -11    1    4    4    0    0  0.62191809286E+02 -0.26317537740E+02 -0.24745705022E+02  0.71922067907E+02  0.00000000000E+00 0.  1.
         12    1    4    4    0    0 -0.21680691533E+02 -0.24332350909E+02 -0.31941283582E+02  0.45632896938E+02  0.00000000000E+00 0. -1.
         -5    1    5    5    0  502 -0.40975036272E+02  0.41986396350E+02  0.13764379954E+03  0.14969875293E+03  0.47000000000E+01 0.  1.
         11    1    6    6    0    0 -0.70141289060E+01 -0.66696724340E+02  0.87548449938E+02  0.11028319060E+03  0.00000000000E+00 0. -1.
        -12    1    6    6    0    0 -0.15886808919E+02 -0.55516108924E+01 -0.13983277178E+02  0.21880199308E+02  0.00000000000E+00 0.  1.
</event>
<event>
12    1  0.1596842E-001  0.1754873E+03  0.7818608E-02  0.1172921E+00
         21   -1    0    0  501  502  0.00000000000E+00  0.00000000000E+00  0.78979481955E+02  0.78979481955E+02  0.00000000000E+00 0.  1.
         21   -1    0    0  502  503 -0.00000000000E+00 -0.00000000000E+00 -0.39029030133E+03  0.39029030133E+03  0.00000000000E+00 0.  1.
         -6    2    1    2    0  503  0.32658562407E+02  0.58733150960E+01 -0.12698572773E+03  0.21661290617E+03  0.17232149763E+03 0.  0.
        -24    2    3    3    0    0  0.23994393603E+02 -0.26804477945E+01 -0.16075215126E+03  0.18041213217E+03  0.78258338697E+02 0.  0.
          6    2    1    2  501    0 -0.32658562407E+02 -0.58733150960E+01 -0.18432509164E+03  0.25265687711E+03  0.16958384538E+03 0.  0.
         24    2    5    5    0    0  0.25042657279E+02 -0.28983846011E+02 -0.16494083418E+03  0.18737773166E+03  0.80235512907E+02 0.  0.
          5    1    5    5  501    0 -0.57701219686E+02  0.23110530915E+02 -0.19384257461E+02  0.65279145443E+02  0.47000000000E+01 0. -1.
        -13    1    6    6    0    0  0.99295941960E+01 -0.56579586439E+02 -0.10720929392E+03  0.12162926928E+03  0.00000000000E+00 0.  1.
         14    1    6    6    0    0  0.15113063083E+02  0.27595740428E+02 -0.57731540255E+02  0.65748462383E+02  0.00000000000E+00 0. -1.
         -5    1    3    3    0  503  0.86641688041E+01  0.85537628905E+01  0.33766423526E+02  0.36200774002E+02  0.47000000000E+01 0.  1.
         13    1    4    4    0    0 -0.94478424978E+01 -0.39495550092E+01  0.49432338333E+01  0.11370851919E+02  0.00000000000E+00 0. -1.
        -14    1    4    4    0    0  0.33442236101E+02  0.12691072147E+01 -0.16569538509E+03  0.16904128025E+03  0.00000000000E+00 0.  1.
</event>
<event>
12    1  0.1596842E-001  0.1764133E+03  0.7818608E-02  0.1171720E+00
         21   -1    0    0  501  502  0.00000000000E+00  0.00000000000E+00  0.21061585401E+03  0.21061585401E+03  0.00000000000E+00 0. -1.
         21   -1    0    0  502  503 -0.00000000000E+00 -0.00000000000E+00 -0.21244320251E+03  0.21244320251E+03  0.00000000000E+00 0. -1.
         -6    2    1    2    0  503 -0.60839714449E+01 -0.36780389573E+02 -0.11882687607E+03  0.21137409055E+03  0.17079042102E+03 0.  0.
        -24    2    3    3    0    0 -0.21471570751E+02 -0.25374920945E+02 -0.15097450265E+03  0.17365906938E+03  0.79115466040E+02 0.  0.
          6    2    1    2  501    0  0.60839714449E+01  0.36780389573E+02  0.11699952757E+03  0.21168496597E+03  0.17242918430E+03 0.  0.
         24    2    5    5    0    0  0.18978552023E+02  0.89851678632E+02  0.71127271416E+02  0.14020639704E+03  0.78519013251E+02 0.  0.
          5    1    5    5  501    0 -0.12894580578E+02 -0.53071289060E+02  0.45872256157E+02  0.71478568926E+02  0.47000000000E+01 0. -1.
        -11    1    6    6    0    0  0.42338815330E+02  0.35607501568E+02  0.57098123484E+02  0.79502611006E+02  0.00000000000E+00 0.  1.
         12    1    6    6    0    0 -0.23360263307E+02  0.54244177064E+02  0.14029147932E+02  0.60703786034E+02  0.00000000000E+00 0. -1.
         -5    1    3    3    0  503  0.15387599306E+02 -0.11405468627E+02  0.32147626573E+02  0.37715021162E+02  0.47000000000E+01 0.  1.
         13    1    4    4    0    0  0.29602730943E+02 -0.94308965674E+01 -0.41835047302E+02  0.52109832777E+02  0.00000000000E+00 0. -1.
        -14    1    4    4    0    0 -0.51074301694E+02 -0.15944024378E+02 -0.10913945534E+03  0.12154923661E+03  0.00000000000E+00 0.  1.
</event>
<event>
12    1  0.1596842E-001  0.2037791E+03  0.7818608E-02  0.1146697E+00
         21   -1    0    0  503  502  0.00000000000E+00  0.00000000000E+00  0.89069099311E+03  0.89069099311E+03  0.00000000000E+00 0.  1.
         21   -1    0    0  501  503 -0.00000000000E+00 -0.00000000000E+00 -0.87893609440E+02  0.87893609440E+02  0.00000000000E+00 0.  1.
          6    2    1    2  501    0 -0.10398402622E+03 -0.31969032931E+02  0.65357263220E+02  0.21350691911E+03  0.17169430939E+03 0.  0.
         24    2    3    3    0    0 -0.35431006241E+02 -0.50917983638E+02  0.92641202080E+02  0.13718469036E+03  0.79932782292E+02 0.  0.
         -6    2    1    2    0  502  0.10398402622E+03  0.31969032931E+02  0.73744012045E+03  0.76507768344E+03  0.17231144383E+03 0.  0.
        -24    2    5    5    0    0  0.54543431484E+01  0.54924528271E+02  0.29300015670E+03  0.30924435360E+03  0.82076334863E+02 0.  0.
          5    1    3    3  501    0 -0.68553019981E+02  0.18948950707E+02 -0.27283938860E+02  0.76322228749E+02  0.47000000000E+01 0. -1.
        -11    1    4    4    0    0 -0.52880297116E+02 -0.13398326075E+02  0.30417292609E+02  0.62458407395E+02  0.00000000000E+00 0.  1.
         12    1    4    4    0    0  0.17449290875E+02 -0.37519657563E+02  0.62223909471E+02  0.74726282963E+02  0.00000000000E+00 0. -1.
         -5    1    5    5    0  502  0.98529683074E+02 -0.22955495340E+02  0.44443996375E+03  0.45583332984E+03  0.47000000000E+01 0.  1.
         11    1    6    6    0    0 -0.28775539932E+02  0.91730758648E+01  0.18108695081E+03  0.18358829149E+03  0.00000000000E+00 0. -1.
        -12    1    6    6    0    0  0.34229883081E+02  0.45751452406E+02  0.11191320590E+03  0.12565606212E+03  0.00000000000E+00 0.  1.
</event>
<event>
12    1  0.1596842E-001  0.3415399E+03  0.7818608E-02  0.1066256E+00
         21   -1    0    0  503  502  0.00000000000E+00  0.00000000000E+00  0.98804075201E+03  0.98804075201E+03  0.00000000000E+00 0.  1.
         21   -1    0    0  501  503 -0.00000000000E+00 -0.00000000000E+00 -0.32503043408E+03  0.32503043408E+03  0.00000000000E+00 0.  1.
          6    2    1    2  501    0  0.11192212895E+03 -0.27267912291E+03 -0.19305603613E+03  0.39138842419E+03  0.17039307051E+03 0.  0.
         24    2    3    3    0    0  0.71670625651E+02 -0.27845649230E+03 -0.16649068730E+03  0.34258914885E+03  0.83507360556E+02 0.  0.
         -6    2    1    2    0  502 -0.11192212895E+03  0.27267912291E+03  0.85606635407E+03  0.92168276190E+03  0.17253708007E+03 0.  0.
        -24    2    5    5    0    0 -0.14218874697E+03  0.22842138525E+03  0.77691685705E+03  0.82596678420E+03  0.78913603548E+02 0.  0.
          5    1    3    3  501    0  0.40251503295E+02  0.57773693884E+01 -0.26565348838E+02  0.48799275337E+02  0.47000000000E+01 0. -1.
        -13    1    4    4    0    0  0.11506211576E+02 -0.95141465330E+02 -0.10002600179E+03  0.13852614325E+03  0.00000000000E+00 0.  1.
         14    1    4    4    0    0  0.60164414075E+02 -0.18331502697E+03 -0.66464685507E+02  0.20406300560E+03  0.00000000000E+00 0. -1.
         -5    1    5    5    0  502  0.30266618022E+02  0.44257737665E+02  0.79149497014E+02  0.95715977701E+02  0.47000000000E+01 0.  1.
         11    1    6    6    0    0 -0.11829990415E+03  0.18039511438E+03  0.51058700426E+03  0.55428905233E+03  0.00000000000E+00 0. -1.
        -12    1    6    6    0    0 -0.23888842817E+02  0.48026270867E+02  0.26632985280E+03  0.27167773187E+03  0.00000000000E+00 0.  1.
</event>
<event>
12    1  0.1596842E-001  0.2365704E+03  0.7818608E-02  0.1122142E+00
         21   -1    0    0  501  502  0.00000000000E+00  0.00000000000E+00  0.35218804470E+03  0.35218804470E+03  0.00000000000E+00 0. -1.
         21   -1    0    0  502  503 -0.00000000000E+00 -0.00000000000E+00 -0.22748622590E+03  0.22748622590E+03  0.00000000000E+00 0. -1.
         -6    2    1    2    0  503 -0.96302478442E+02 -0.13066600626E+03 -0.96960619911E+02  0.25566957940E+03  0.17209822623E+03 0.  0.
        -24    2    3    3    0    0 -0.12713801011E+03 -0.12426178939E+03 -0.54702842030E+02  0.20275782458E+03  0.80704823801E+02 0.  0.
          6    2    1    2  501    0  0.96302478442E+02  0.13066600626E+03  0.22166243871E+03  0.32400469120E+03  0.17174699602E+03 0.  0.
         24    2    5    5    0    0  0.10142724740E+03  0.15990791069E+03  0.19736716416E+03  0.28535624237E+03  0.81341017696E+02 0.  0.
          5    1    5    5  501    0 -0.51247689559E+01 -0.29241904426E+02  0.24295274554E+02  0.38648448830E+02  0.47000000000E+01 0. -1.
        -11    1    6    6    0    0  0.82985881073E+02  0.55058133118E+02  0.98358998763E+02  0.13997338003E+03  0.00000000000E+00 0.  1.
         12    1    6    6    0    0  0.18441366324E+02  0.10484977757E+03  0.99008165393E+02  0.14538286234E+03  0.00000000000E+00 0. -1.
         -5    1    3    3    0  503  0.30835531667E+02 -0.64042168697E+01 -0.42257777881E+02  0.52911754822E+02  0.47000000000E+01 0.  1.
         11    1    4    4    0    0  0.58500947124E+01 -0.13197264196E+02 -0.22182643530E+02  0.26466224974E+02  0.00000000000E+00 0. -1.
        -12    1    4    4    0    0 -0.13298810482E+03 -0.11106452520E+03 -0.32520198500E+02  0.17629159961E+03  0.00000000000E+00 0.  1.
</event>
<event>
12    1  0.1596842E-001  0.1793829E+03  0.7818608E-02  0.1168816E+00
         21   -1    0    0  503  502  0.00000000000E+00  0.00000000000E+00  0.39994327814E+03  0.39994327814E+03  0.00000000000E+00 0.  1.
         21   -1    0    0  501  503 -0.00000000000E+00 -0.00000000000E+00 -0.18779992081E+03  0.18779992081E+03  0.00000000000E+00 0.  1.
          6    2    1    2  501    0 -0.26955660074E+02  0.40132243453E+02 -0.11710001957E+03  0.21280394524E+03  0.17098508693E+03 0.  0.
         24    2    3    3    0    0 -0.56197906438E+02  0.80461026396E+02 -0.93808064484E+02  0.15761223502E+03  0.80059241866E+02 0.  0.
         -6    2    1    2    0  502  0.26955660074E+02 -0.40132243453E+02  0.32924337691E+03  0.37493925371E+03  0.17274558796E+03 0.  0.
        -24    2    5    5    0    0  0.20576049158E+02 -0.48004994770E+02  0.77841831329E+02  0.12328968234E+03  0.80082093789E+02 0.  0.
          5    1    3    3  501    0  0.29242246364E+02 -0.40328782943E+02 -0.23291955087E+02  0.55191710228E+02  0.47000000000E+01 0. -1.
        -13    1    4    4    0    0 -0.44804242110E+02  0.39950982219E+02 -0.98416052680E+02  0.11527888148E+03  0.00000000000E+00 0.  1.
         14    1    4    4    0    0 -0.11393664329E+02  0.40510044178E+02  0.46079881959E+01  0.42333353533E+02  0.00000000000E+00 0. -1.
         -5    1    5    5    0  502  0.63796109159E+01  0.78727513166E+01  0.25140154558E+03  0.25164957136E+03  0.47000000000E+01 0.  1.
         13    1    6    6    0    0  0.22780719522E+02 -0.48804742724E+02  0.93259353998E+02  0.10769480583E+03  0.00000000000E+00 0. -1.
        -14    1    6    6    0    0 -0.22046703640E+01  0.79974795464E+00 -0.15417522669E+02  0.15594876513E+02  0.00000000000E+00 0.  1.
</event>
<event>
12    1  0.1596842E-001  0.3144217E+03  0.7818608E-02  0.1078248E+00
         21   -1    0    0  503  502  0.00000000000E+00  0.00000000000E+00  0.97285531847E+02  0.97285531847E+02  0.00000000000E+00 0.  1.
         21   -1    0    0  501  503 -0.00000000000E+00 -0.00000000000E+00 -0.10506731658E+04  0.10506731658E+04  0.00000000000E+00 0. -1.
          6    2    1    2  501    0  0.12046815732E+03  0.23398291988E+03 -0.58079945403E+03  0.66044606496E+03  0.17204771197E+03 0.  0.
         24    2    3    3    0    0  0.57002127024E+01  0.15564579900E+03 -0.29008618567E+03  0.33819665841E+03  0.77258510679E+02 0.  0.
         -6    2    1    2    0  502 -0.12046815732E+03 -0.23398291988E+03 -0.37258817996E+03  0.48751263273E+03  0.17200590541E+03 0.  0.
        -24    2    5    5    0    0 -0.63695202766E+01 -0.37230604763E+02 -0.93533935867E+02  0.12748022637E+03  0.77948202270E+02 0.  0.
          5    1    3    3  501    0  0.11476794462E+03  0.78337120878E+02 -0.29071326836E+03  0.32224940655E+03  0.47000000000E+01 0. -1.
        -13    1    4    4    0    0 -0.16240834883E+02  0.18554271640E+02 -0.12096070750E+02  0.27465262449E+02  0.00000000000E+00 0.  1.
         14    1    4    4    0    0  0.21941047586E+02  0.13709152736E+03 -0.27799011492E+03  0.31073139596E+03  0.00000000000E+00 0. -1.
         -5    1    5    5    0  502 -0.11409863704E+03 -0.19675231512E+03 -0.27905424409E+03  0.36003240636E+03  0.47000000000E+01 0.  1.
         11    1    6    6    0    0 -0.17043811782E+02 -0.46250049466E+02 -0.10044708601E+03  0.11188912228E+03  0.00000000000E+00 0. -1.
        -12    1    6    6    0    0  0.10674291505E+02  0.90194447028E+01  0.69131501456E+01  0.15591104093E+02  0.00000000000E+00 0.  1.
</event>
<event>
12    1  0.1596842E-001  0.2439943E+03  0.7818608E-02  0.1117187E+00
         21   -1    0    0  503  502  0.00000000000E+00  0.00000000000E+00  0.19084171218E+03  0.19084171218E+03  0.00000000000E+00 0. -1.
         21   -1    0    0  501  503 -0.00000000000E+00 -0.00000000000E+00 -0.32067593514E+03  0.32067593514E+03  0.00000000000E+00 0. -1.
          6    2    1    2  501    0 -0.13815882988E+03  0.10393567321E+03 -0.10758204754E+03  0.26651072782E+03  0.17194064282E+03 0.  0.
         24    2    3    3    0    0 -0.13127296095E+03  0.13284698038E+03 -0.61651029835E+02  0.21160146393E+03  0.78060358602E+02 0.  0.
         -6    2    1    2    0  502  0.13815882988E+03 -0.10393567321E+03 -0.22252175419E+02  0.24500691949E+03  0.17217068522E+03 0.  0.
        -24    2    5    5    0    0  0.68883799846E+02 -0.26547509359E+02 -0.70579343590E+02  0.13035281850E+03  0.80997934638E+02 0.  0.
          5    1    3    3  501    0 -0.68858689336E+01 -0.28911307175E+02 -0.45931017708E+02  0.54909263893E+02  0.47000000000E+01 0. -1.
        -13    1    4    4    0    0 -0.99309302334E+02  0.85591202733E+02 -0.49960393386E+01  0.13119890215E+03  0.00000000000E+00 0.  1.
         14    1    4    4    0    0 -0.31963658612E+02  0.47255777650E+02 -0.56654990496E+02  0.80402561783E+02  0.00000000000E+00 0. -1.
         -5    1    5    5    0  502  0.69275030034E+02 -0.77388163849E+02  0.48327168171E+02  0.11465410099E+03  0.47000000000E+01 0.  1.
         11    1    6    6    0    0  0.15282881554E+02 -0.33334334508E+02 -0.66785556412E+02  0.76190910685E+02  0.00000000000E+00 0. -1.
        -12    1    6    6    0    0  0.53600918292E+02  0.67868251493E+01 -0.37937871778E+01  0.54161907818E+02  0.00000000000E+00 0.  1.
</event>
<event>
12    1  0.1596842E-001  0.1728804E+03  0.7818608E-02  0.1175819E+00
         21   -1    0    0  503  502  0.00000000000E+00  0.00000000000E+00  0.11784390565E+04  0.11784390565E+04  0.00000000000E+00 0.  1.
         21   -1    0    0  501  503 -0.00000000000E+00 -0.00000000000E+00 -0.25827140695E+02  0.25827140695E+02  0.00000000000E+00 0.  1.
          6    2    1    2  501    0 -0.66042479867E+01  0.31038731826E+01  0.45205097678E+03  0.48268926278E+03  0.16907273192E+03 0.  0.
         24    2    3    3    0    0  0.22388274913E+01  0.65523296778E+02  0.31365817891E+03  0.33054117398E+03  0.81103019219E+02 0.  0.
         -6    2    1    2    0  502  0.66042479867E+01 -0.31038731826E+01  0.70056093905E+03  0.72157693444E+03  0.17272635256E+03 0.  0.
        -24    2    5    5    0    0  0.48376805883E+02  0.10493082082E+02  0.63771310727E+03  0.64475399682E+03  0.81112817134E+02 0.  0.
          5    1    3    3  501    0 -0.88430754781E+01 -0.62419423595E+02  0.13839279786E+03  0.15214808880E+03  0.47000000000E+01 0. -1.
        -13    1    4    4    0    0 -0.27175234685E+02  0.11263526784E+02  0.37988123423E+02  0.48046414403E+02  0.00000000000E+00 0.  1.
         14    1    4    4    0    0  0.29414062176E+02  0.54259769993E+02  0.27567005549E+03  0.28249475957E+03  0.00000000000E+00 0. -1.
         -5    1    5    5    0  502 -0.41772557897E+02 -0.13596955265E+02  0.62847831783E+02  0.76822937626E+02  0.47000000000E+01 0.  1.
         11    1    6    6    0    0 -0.14205553064E+02  0.24215356814E+02  0.12882792867E+03  0.13185149392E+03  0.00000000000E+00 0. -1.
        -12    1    6    6    0    0  0.62582358947E+02 -0.13722274732E+02  0.50888517861E+03  0.51290250290E+03  0.00000000000E+00 0.  1.
</event>
<event>
12    1  0.1596842E-001  0.2041771E+03  0.7818608E-02  0.1146841E+00
         21   -1    0    0  501  502  0.00000000000E+00  0.00000000000E+00  0.42146502891E+03  0.42146502891E+03  0.00000000000E+00 0.  1.
         21   -1    0    0  502  503 -0.00000000000E+00 -0.00000000000E+00 -0.10939362575E+03  0.10939362575E+03  0.00000000000E+00 0.  1.
         -6    2    1    2    0  503 -0.10507092866E+03 -0.68243489013E+01  0.69705366873E+02  0.21574781854E+03  0.17493373388E+03 0.  0.
        -24    2    3    3    0    0 -0.71007466305E+02 -0.31871091401E+02  0.11060938030E+03  0.15673182841E+03  0.79199774551E+02 0.  0.
          6    2    1    2  501    0  0.10507092866E+03  0.68243489013E+01  0.24236603628E+03  0.31511083612E+03  0.17165975565E+03 0.  0.
         24    2    5    5    0    0 -0.71255332180E+01 -0.16499715857E+02  0.71223244568E+02  0.10909141177E+03  0.80654644673E+02 0.  0.
          5    1    5    5  501    0  0.11219646187E+03  0.23324064758E+02  0.17114279172E+03  0.20601942435E+03  0.47000000000E+01 0. -1.
        -11    1    6    6    0    0  0.33274142071E+02 -0.44102445108E+01  0.10514237076E+02  0.35173398592E+02  0.00000000000E+00 0.  1.
         12    1    6    6    0    0 -0.40399675289E+02 -0.12089471346E+02  0.60709007492E+02  0.73918013174E+02  0.00000000000E+00 0. -1.
         -5    1    3    3    0  503 -0.34063462351E+02  0.25046742499E+02 -0.40904013424E+02  0.59015990133E+02  0.47000000000E+01 0.  1.
         11    1    4    4    0    0  0.16613226732E+02 -0.77182082064E+01  0.90191351322E+01  0.20418492571E+02  0.00000000000E+00 0. -1.
        -12    1    4    4    0    0 -0.87620693037E+02 -0.24152883194E+02  0.10159024516E+03  0.13631333584E+03  0.00000000000E+00 0.  1.
</event>
<event>
12    1  0.1596842E-001  0.2263290E+03  0.7818608E-02  0.1129502E+00
         21   -1    0    0  503  502  0.00000000000E+00  0.00000000000E+00  0.79089455638E+03  0.79089455638E+03  0.00000000000E+00 0.  1.
         21   -1    0    0  501  503 -0.00000000000E+00 -0.00000000000E+00 -0.64494845831E+02  0.64494845831E+02  0.00000000000E+00 0.  1.
          6    2    1    2  501    0 -0.31307452582E+02  0.14193616564E+03  0.38088224133E+03  0.44234325210E+03  0.17166898150E+03 0.  0.
         24    2    3    3    0    0 -0.86596430774E+02  0.84441431911E+02  0.25713055301E+03  0.29503715623E+03  0.79382019503E+02 0.  0.
         -6    2    1    2    0  502  0.31307452582E+02 -0.14193616564E+03  0.34551746922E+03  0.41304615011E+03  0.17348996767E+03 0.  0.
        -24    2    5    5    0    0  0.53420786333E+02 -0.90184281686E+02  0.11372662712E+03  0.17447469016E+03  0.80750769131E+02 0.  0.
          5    1    3    3  501    0  0.55288978192E+02  0.57494733733E+02  0.12375168833E+03  0.14730609587E+03  0.47000000000E+01 0. -1.
        -13    1    4    4    0    0 -0.52999722827E+02  0.22587629332E+02  0.50035578741E+02  0.76306819869E+02  0.00000000000E+00 0.  1.
         14    1    4    4    0    0 -0.33596707948E+02  0.61853802579E+02  0.20709497427E+03  0.21873033636E+03  0.00000000000E+00 0. -1.
         -5    1    5    5    0  502 -0.22113333751E+02 -0.51751883957E+02  0.23179084210E+03  0.23857145995E+03  0.47000000000E+01 0.  1.
         13    1    6    6    0    0  0.66077309231E+01 -0.65793099284E+01  0.67404352467E+02  0.68046279536E+02  0.00000000000E+00 0. -1.
        -14    1    6    6    0    0  0.46813055410E+02 -0.83604971758E+02  0.46322274653E+02  0.10642841063E+03  0.00000000000E+00 0.  1.
</event>
<event>
12    1  0.1596842E-001  0.1755367E+03  0.7818608E-02  0.1173033E+00
         21   -1    0    0  501  502  0.00000000000E+00  0.00000000000E+00  0.69901857559E+02  0.69901857559E+02  0.00000000000E+00 0. -1.
         21   -1    0    0  502  503 -0.00000000000E+00 -0.00000000000E+00 -0.45730733163E+03  0.45730733163E+03  0.00000000000E+00 0. -1.
         -6    2    1    2    0  503  0.47627912637E+01 -0.18879034445E+02 -0.13406152111E+03  0.22087464744E+03  0.17445347895E+03 0.  0.
        -24    2    3    3    0    0  0.11558436103E+02 -0.25661518116E+02  0.22129514350E+01  0.84181543225E+02  0.79306519962E+02 0.  0.
          6    2    1    2  501    0 -0.47627912637E+01  0.18879034445E+02 -0.25334395296E+03  0.30633454174E+03  0.17110987944E+03 0.  0.
         24    2    5    5    0    0  0.63666183130E+02 -0.39934029258E+01 -0.14556474116E+03  0.17654963729E+03  0.76885306901E+02 0.  0.
          5    1    5    5  501    0 -0.68428974393E+02  0.22872437371E+02 -0.10777921180E+03  0.12978490445E+03  0.47000000000E+01 0. -1.
        -11    1    6    6    0    0  0.30101269081E+02  0.31558285885E+02 -0.10251096691E+03  0.11140246920E+03  0.00000000000E+00 0.  1.
         12    1    6    6    0    0  0.33564914049E+02 -0.35551688811E+02 -0.43053774253E+02  0.65147168087E+02  0.00000000000E+00 0. -1.
         -5    1    3    3    0  503 -0.67956448392E+01  0.67824836709E+01 -0.13627447255E+03  0.13669310422E+03  0.47000000000E+01 0.  1.
         13    1    4    4    0    0  0.39406225809E+02  0.80018651219E+01  0.43199062941E+01  0.40441835620E+02  0.00000000000E+00 0. -1.
        -14    1    4    4    0    0 -0.27847789706E+02 -0.33663383238E+02 -0.21069548591E+01  0.43739707605E+02  0.00000000000E+00 0.  1.
</event>
<event>
12    1  0.1596842E-001  0.1943620E+03  0.7818608E-02  0.1154815E+00
         21   -1    0    0  501  502  0.00000000000E+00  0.00000000000E+00  0.16715417134E+03  0.16715417134E+03  0.00000000000E+00 0. -1.
         21   -1    0    0  502  503 -0.00000000000E+00 -0.00000000000E+00 -0.22584219024E+03  0.22584219024E+03  0.00000000000E+00 0.  1.
         -6    2    1    2    0  503 -0.72005871513E+02  0.53035992324E+02 -0.15951204633E+02  0.19501548934E+03  0.17256575019E+03 0.  0.
        -24    2    3    3    0    0 -0.10916246167E+03  0.52577166252E+02  0.14847927673E+02  0.14652322951E+03  0.81041929768E+02 0.  0.
          6    2    1    2  501    0  0.72005871513E+02 -0.53035992324E+02 -0.42736814267E+02  0.19798087224E+03  0.17138357117E+03 0.  0.
         24    2    5    5    0    0 -0.17216663845E+02 -0.33395015776E+02  0.14342864639E+02  0.90154119906E+02  0.80687093003E+02 0.  0.
          5    1    5    5  501    0  0.89222535358E+02 -0.19640976548E+02 -0.57079678906E+02  0.10782675234E+03  0.47000000000E+01 0. -1.
        -13    1    6    6    0    0 -0.27959017328E+02 -0.12752011663E+02 -0.28170747936E+02  0.41688265623E+02  0.00000000000E+00 0.  1.
         14    1    6    6    0    0  0.10742353483E+02 -0.20643004113E+02  0.42513612575E+02  0.48465854283E+02  0.00000000000E+00 0. -1.
         -5    1    3    3    0  503  0.37156590152E+02  0.45882607281E+00 -0.30799132306E+02  0.48492259835E+02  0.47000000000E+01 0.  1.
         11    1    4    4    0    0 -0.69286046270E+02  0.54176920017E+02  0.42785837061E+02  0.97807580091E+02  0.00000000000E+00 0. -1.
        -12    1    4    4    0    0 -0.39876415395E+02 -0.15997537651E+01 -0.27937909388E+02  0.48715649414E+02  0.00000000000E+00 0.  1.
</event>
<event>
12    1  0.1596842E-001  0.1916371E+03  0.7818608E-02  0.1157102E+00
         21   -1    0    0  501  502  0.00000000000E+00  0.00000000000E+00  0.29309502493E+03  0.29309502493E+03  0.00000000000E+00 0.  1.
         21   -1    0    0  502  503 -0.00000000000E+00 -0.00000000000E+00 -0.35208487591E+03  0.35208487591E+03  0.00000000000E+00 0.  1.
         -6    2    1    2    0  503 -0.78590807357E+02 -0.32104771224E+02 -0.28859129413E+03  0.34642416924E+03  0.17180668977E+03 0.  0.
        -24    2    3    3    0    0 -0.89697101644E+02 -0.77032505582E+02 -0.23893226766E+03  0.27838035985E+03  0.80171187210E+02 0.  0.
          6    2    1    2  501    0  0.78590807357E+02  0.32104771224E+02  0.22960144316E+03  0.29875573160E+03  0.17126276048E+03 0.  0.
         24    2    5    5    0    0 -0.10665961796E+02  0.20177341350E+02  0.47651917328E+02  0.95687382583E+02  0.79777704376E+02 0.  0.
          5    1    5    5  501    0  0.89256769153E+02  0.11927429874E+02  0.18194952583E+03  0.20306834902E+03  0.47000000000E+01 0. -1.
        -13    1    6    6    0    0 -0.20062699199E+02 -0.23384178918E+02  0.39969171812E+02  0.50466488070E+02  0.00000000000E+00 0.  1.
         14    1    6    6    0    0  0.93967374034E+01  0.43561520268E+02  0.76827455158E+01  0.45220894513E+02  0.00000000000E+00 0. -1.
         -5    1    3    3    0  503  0.11106294287E+02  0.44927734357E+02 -0.49659026472E+02  0.68043809398E+02  0.47000000000E+01 0.  1.
         13    1    4    4    0    0 -0.99988564193E+02 -0.48255462906E+02 -0.20144372224E+03  0.23001277334E+03  0.00000000000E+00 0. -1.
        -14    1    4    4    0    0  0.10291462549E+02 -0.28777042676E+02 -0.37488545420E+02  0.48367586505E+02  0.00000000000E+00 0.  1.
</event>
<event>
12    1  0.1596842E-001  0.1731980E+03  0.7818608E-02  0.1175505E+00
         21   -1    0    0  503  502  0.00000000000E+00  0.00000000000E+00  0.37861062431E+02  0.37861062431E+02  0.00000000000E+00 0.  1.
         21   -1    0    0  501  503 -0.00000000000E+00 -0.00000000000E+00 -0.10670799670E+04  0.10670799670E+04  0.00000000000E+00 0.  1.
          6    2    1    2  501    0 -0.14224451684E+02  0.85999864368E+01 -0.79936541662E+03  0.81713871627E+03  0.16868407615E+03 0.  0.
         24    2    3    3    0    0 -0.60739371853E+02  0.43350423173E+02 -0.56313441283E+03  0.57383148702E+03  0.81201466146E+02 0.  0.
         -6    2    1    2    0  502  0.14224451684E+02 -0.85999864368E+01 -0.22985348798E+03  0.28780231319E+03  0.17239852305E+03 0.  0.
        -24    2    5    5    0    0 -0.46671680743E+02  0.24564986443E+02 -0.17333472792E+03  0.19822154176E+03  0.80406264518E+02 0.  0.
          5    1    3    3  501    0  0.46514920169E+02 -0.34750436737E+02 -0.23623100379E+03  0.24330722925E+03  0.47000000000E+01 0. -1.
        -13    1    4    4    0    0 -0.23978500146E+02  0.35843618580E+02 -0.48748657326E+03  0.48939032742E+03  0.00000000000E+00 0.  1.
         14    1    4    4    0    0 -0.36760871708E+02  0.75068045933E+01 -0.75647839572E+02  0.84441159607E+02  0.00000000000E+00 0. -1.
         -5    1    5    5    0  502  0.60896132427E+02 -0.33164972880E+02 -0.56518760054E+02  0.89580771423E+02  0.47000000000E+01 0.  1.
         13    1    6    6    0    0 -0.23357989090E+02  0.53829202491E+02 -0.10940964044E+03  0.12415171411E+03  0.00000000000E+00 0. -1.
        -14    1    6    6    0    0 -0.23313691653E+02 -0.29264216048E+02 -0.63925087480E+02  0.74069827654E+02  0.00000000000E+00 0.  1.
</event>
<event>
12    1  0.1596842E-001  0.2414848E+03  0.7818608E-02  0.1118828E+00
         21   -1    0    0  503  502  0.00000000000E+00  0.00000000000E+00  0.64541209453E+03  0.64541209453E+03  0.00000000000E+00 0. -1.
         21   -1    0    0  501  503 -0.00000000000E+00 -0.00000000000E+00 -0.10262063176E+03  0.10262063176E+03  0.00000000000E+00 0.  1.
          6    2    1    2  501    0 -0.15009274752E+03  0.77570758047E+02  0.14189313686E+03  0.28008669059E+03  0.17253937694E+03 0.  0.
         24    2    3    3    0    0  0.64409108112E+01 -0.42423943139E+01  0.64458845935E+02  0.87176510712E+02  0.58183485277E+02 0.  0.
         -6    2    1    2    0  502  0.15009274752E+03 -0.77570758047E+02  0.40089832591E+03  0.46794603571E+03  0.17236289987E+03 0.  0.
        -24    2    5    5    0    0  0.17175651543E+03 -0.39441440744E+02  0.35331960210E+03  0.40306931694E+03  0.81081472539E+02 0.  0.
          5    1    3    3  501    0 -0.15653365833E+03  0.81813152361E+02  0.77434290924E+02  0.19291017988E+03  0.47000000000E+01 0. -1.
        -13    1    4    4    0    0  0.25929000350E+02  0.10743274964E+02  0.14716334726E+02  0.31690716683E+02  0.00000000000E+00 0.  1.
         14    1    4    4    0    0 -0.19488089539E+02 -0.14985669278E+02  0.49742511210E+02  0.55485794029E+02  0.00000000000E+00 0. -1.
         -5    1    5    5    0  502 -0.21663767913E+02 -0.38129317304E+02  0.47578723814E+02  0.64876718767E+02  0.47000000000E+01 0.  1.
         11    1    6    6    0    0  0.73179025764E+02  0.22401213861E+01  0.22141549575E+03  0.23320593842E+03  0.00000000000E+00 0. -1.
        -12    1    6    6    0    0  0.98577489666E+02 -0.41681562130E+02  0.13190410635E+03  0.16986337852E+03  0.00000000000E+00 0.  1.
</event>
<event>
12    1  0.1596842E-001  0.2069743E+03  0.7818608E-02  0.1144095E+00
         21   -1    0    0  503  502  0.00000000000E+00  0.00000000000E+00  0.25200210379E+03  0.25200210379E+03  0.00000000000E+00 0. -1.
         21   -1    0    0  501  503 -0.00000000000E+00 -0.00000000000E+00 -0.16980236646E+03  0.16980236646E+03  0.00000000000E+00 0.  1.
          6    2    1    2  501    0 -0.15639039388E+02  0.11398069628E+03  0.49284349573E+02  0.21222923783E+03  0.17139464286E+03 0.  0.
         24    2    3    3    0    0 -0.30851348289E+01  0.44906689473E+02 -0.40632422249E+02  0.98054219587E+02  0.77055223215E+02 0.  0.
         -6    2    1    2    0  502  0.15639039388E+02 -0.11398069628E+03  0.32915387754E+02  0.20957523242E+03  0.17205283089E+03 0.  0.
        -24    2    5    5    0    0 -0.34229029212E+02 -0.11746119033E+03  0.53252050137E+02  0.15540321066E+03  0.79659395957E+02 0.  0.
          5    1    3    3  501    0 -0.12553904559E+02  0.69074006807E+02  0.89916771822E+02  0.11417501824E+03  0.47000000000E+01 0. -1.
        -13    1    4    4    0    0 -0.31639946826E+02  0.12211493702E+02 -0.42779454719E+02  0.54592019193E+02  0.00000000000E+00 0.  1.
         14    1    4    4    0    0  0.28554811997E+02  0.32695195771E+02  0.21470324693E+01  0.43462200394E+02  0.00000000000E+00 0. -1.
         -5    1    5    5    0  502  0.49868068601E+02  0.34804940536E+01 -0.20336662384E+02  0.54172021761E+02  0.47000000000E+01 0.  1.
         11    1    6    6    0    0 -0.15490739069E+02 -0.90764185010E+02  0.72798015320E+02  0.11737824037E+03  0.00000000000E+00 0. -1.
        -12    1    6    6    0    0 -0.18738290144E+02 -0.26697005323E+02 -0.19545965183E+02  0.38024970291E+02  0.00000000000E+00 0.  1.
</event>
<event>
12    1  0.1596842E-001  0.1923076E+03  0.7818608E-02  0.1156577E+00
         21   -1    0    0  501  502  0.00000000000E+00  0.00000000000E+00  0.16918689780E+04  0.16918689780E+04  0.00000000000E+00 0.  1.
         21   -1    0    0  502  503 -0.00000000000E+00 -0.00000000000E+00 -0.26109661494E+02  0.26109661494E+02  0.00000000000E+00 0.  1.
         -6    2    1    2    0  503 -0.43890209999E+02 -0.67724595661E+02  0.48400722022E+03  0.52081205090E+03  0.17455438051E+03 0.  0.
        -24    2    3    3    0    0 -0.14302573898E+02  0.25894754243E+02  0.30459319902E+03  0.31623567913E+03  0.79704993244E+02 0.  0.
          6    2    1    2  501    0  0.43890209999E+02  0.67724595661E+02  0.11817520963E+04  0.11971665886E+04  0.17365728421E+03 0.  0.
         24    2    5    5    0    0  0.48663320951E+02  0.11099820848E+03  0.86259084580E+03  0.87501540984E+03  0.83067918662E+02 0.  0.
          5    1    5    5  501    0 -0.47731109516E+01 -0.43273612820E+02  0.31916125051E+03  0.32215117877E+03  0.47000000000E+01 0. -1.
        -11    1    6    6    0    0  0.39212914500E+02  0.12257181408E+02  0.38802755615E+03  0.39019645756E+03  0.00000000000E+00 0.  1.
         12    1    6    6    0    0  0.94504064510E+01  0.98741027073E+02  0.47456328965E+03  0.48481895229E+03  0.00000000000E+00 0. -1.
         -5    1    3    3    0  503 -0.29587636101E+02 -0.93619349904E+02  0.17941402119E+03  0.20457637177E+03  0.47000000000E+01 0.  1.
         11    1    4    4    0    0 -0.80065034051E+01  0.35933832989E+02  0.53959875942E+02  0.65322374894E+02  0.00000000000E+00 0. -1.
        -12    1    4    4    0    0 -0.62960704926E+01 -0.10039078745E+02  0.25063332308E+03  0.25091330424E+03  0.00000000000E+00 0.  1.
</event>
<event>
12    1  0.1596842E-001  0.2055936E+03  0.7818608E-02  0.1145619E+00
         21   -1    0    0  501  502  0.00000000000E+00  0.00000000000E+00  0.45173553791E+02  0.45173553791E+02  0.00000000000E+00 0.  1.
         21   -1    0    0  502  503 -0.00000000000E+00 -0.00000000000E+00 -0.97085289506E+03  0.97085289506E+03  0.00000000000E+00 0. -1.
         -6    2    1    2    0  503 -0.93207230840E+02 -0.56718325916E+02 -0.34887758094E+03  0.40367932676E+03  0.17128010974E+03 0.  0.
        -24    2    3    3    0    0 -0.49858787069E+02 -0.87204653544E+02 -0.31549725387E+03  0.34087136560E+03  0.81019876809E+02 0.  0.
          6    2    1    2  501    0  0.93207230840E+02  0.56718325916E+02 -0.57680176033E+03  0.61234712209E+03  0.17425318029E+03 0.  0.
         24    2    5    5    0    0 -0.19334939373E+02  0.32514312445E+02 -0.21826334688E+03  0.23575256788E+03  0.80680631357E+02 0.  0.
          5    1    5    5  501    0  0.11254217021E+03  0.24204013471E+02 -0.35853841345E+03  0.37659455421E+03  0.47000000000E+01 0. -1.
        -13    1    6    6    0    0 -0.19434357472E+02  0.22176020223E+02 -0.16627411979E+02  0.33851749621E+02  0.00000000000E+00 0.  1.
         14    1    6    6    0    0  0.99418098339E-01  0.10338292222E+02 -0.20163593490E+03  0.20190081826E+03  0.00000000000E+00 0. -1.
         -5    1    3    3    0  503 -0.43348443771E+02  0.30486327629E+02 -0.33380327069E+02  0.62807961159E+02  0.47000000000E+01 0.  1.
         11    1    4    4    0    0 -0.50943963005E+02 -0.25642550887E+02 -0.21978858634E+03  0.22706794240E+03  0.00000000000E+00 0. -1.
        -12    1    4    4    0    0  0.10851759365E+01 -0.61562102657E+02 -0.95708667529E+02  0.11380342319E+03  0.00000000000E+00 0.  1.
</event>
<event>
12    1  0.1596842E-001  0.1879545E+03  0.7818608E-02  0.1160671E+00
         21   -1    0    0  501  502  0.00000000000E+00  0.00000000000E+00  0.10756744555E+04  0.10756744555E+04  0.00000000000E+00 0.  1.
         21   -1    0    0  502  503 -0.00000000000E+00 -0.00000000000E+00 -0.36136776932E+02  0.36136776932E+02  0.00000000000E+00 0.  1.
         -6    2    1    2    0  503 -0.99256160407E+01  0.75133177696E+02  0.34332603874E+03  0.39067495685E+03  0.17032510322E+03 0.  0.
        -24    2    3    3    0    0  0.40225695446E+02 -0.70062817185E+01  0.18766213712E+03  0.20760288059E+03  0.78833265593E+02 0.  0.
          6    2    1    2  501    0  0.99256160407E+01 -0.75133177696E+02  0.69621163984E+03  0.72113627560E+03  0.17199816362E+03 0.  0.
         24    2    5    5    0    0  0.25525094541E+02 -0.11617868918E+03  0.50128625440E+03  0.52127113699E+03  0.79288530921E+02 0.  0.
          5    1    5    5  501    0 -0.15599478501E+02  0.41045511484E+02  0.19492538544E+03  0.19986513861E+03  0.47000000000E+01 0. -1.
        -11    1    6    6    0    0 -0.26343567707E+02 -0.36111553631E+02  0.11506876245E+03  0.12344572879E+03  0.00000000000E+00 0.  1.
         12    1    6    6    0    0  0.51868662248E+02 -0.80067135548E+02  0.38621749195E+03  0.39782540820E+03  0.00000000000E+00 0. -1.
         -5    1    3    3    0  503 -0.50151311487E+02  0.82139459414E+02  0.15566390162E+03  0.18307207625E+03  0.47000000000E+01 0.  1.
         13    1    4    4    0    0  0.40322759905E+02 -0.68452989539E+01  0.31973773166E+02  0.51914403151E+02  0.00000000000E+00 0. -1.
        -14    1    4    4    0    0 -0.97064458608E-01 -0.16098276456E+00  0.15568836396E+03  0.15568847744E+03  0.00000000000E+00 0.  1.
</event>
<event>
12    1  0.1596842E-001  0.1766822E+03  0.7818608E-02  0.1171339E+00
         21   -1    0    0  503  502  0.00000000000E+00  0.00000000000E+00  0.58883255648E+02  0.58883255648E+02  0.00000000000E+00 0. -1.
         21   -1    0    0  501  503 -0.00000000000E+00 -0.00000000000E+00 -0.52903928815E+03  0.52903928815E+03  0.00000000000E+00 0. -1.
          6    2    1    2  501    0  0.16125100299E+02 -0.36156716919E+02 -0.25537848765E+03  0.31053946677E+03  0.17218960895E+03 0.  0.
         24    2    3    3    0    0  0.62064233165E+02 -0.10678048082E+01 -0.91072549004E+02  0.13629777498E+03  0.80185815692E+02 0.  0.
         -6    2    1    2    0  502 -0.16125100299E+02  0.36156716919E+02 -0.21477754485E+03  0.27738307703E+03  0.17101067397E+03 0.  0.
        -24    2    5    5    0    0  0.54173079060E+02  0.26050930221E+02 -0.10998113296E+03  0.15070103848E+03  0.83675444015E+02 0.  0.
          5    1    3    3  501    0 -0.45939132866E+02 -0.35088912111E+02 -0.16430593865E+03  0.17424169179E+03  0.47000000000E+01 0. -1.
        -13    1    4    4    0    0  0.13964398225E+01  0.98767435108E+01  0.12362692012E+02  0.15885095541E+02  0.00000000000E+00 0.  1.
         14    1    4    4    0    0  0.60667793342E+02 -0.10944548319E+02 -0.10343524102E+03  0.12041267944E+03  0.00000000000E+00 0. -1.
         -5    1    5    5    0  502 -0.70298179358E+02  0.10105786698E+02 -0.10479641189E+03  0.12668203855E+03  0.47000000000E+01 0.  1.
         11    1    6    6    0    0  0.51267988749E+02  0.51721521180E+02 -0.59687083778E+02  0.94159813049E+02  0.00000000000E+00 0. -1.
        -12    1    6    6    0    0  0.29050903108E+01 -0.25670590960E+02 -0.50294049180E+02  0.56541225427E+02  0.00000000000E+00 0.  1.
</event>
<event>
12    1  0.1596842E-001  0.1961321E+03  0.7818608E-02  0.1153767E+00
         21   -1    0    0  501  502  0.00000000000E+00  0.00000000000E+00  0.51026318236E+03  0.51026318236E+03  0.00000000000E+00 0.  1.
         21   -1    0    0  502  503 -0.00000000000E+00 -0.00000000000E+00 -0.83293412152E+02  0.83293412152E+02  0.00000000000E+00 0.  1.
         -6    2    1    2    0  503 -0.29122947396E+02  0.82167990368E+02  0.11338447177E+03  0.22368695166E+03  0.17198863102E+03 0.  0.
        -24    2    3    3    0    0 -0.14529555288E+02  0.74661240641E+02  0.14843094466E+03  0.18470408816E+03  0.79362749567E+02 0.  0.
          6    2    1    2  501    0  0.29122947396E+02 -0.82167990368E+02  0.31358529844E+03  0.36986964285E+03  0.17569316605E+03 0.  0.
         24    2    5    5    0    0  0.57903132503E+02 -0.96447011097E+02  0.14502424346E+03  0.19820977933E+03  0.74835063490E+02 0.  0.
          5    1    5    5  501    0 -0.28780185107E+02  0.14279020728E+02  0.16856105498E+03  0.17165986352E+03  0.47000000000E+01 0. -1.
        -11    1    6    6    0    0  0.30029349018E+02 -0.55632725437E+02  0.13312432849E+03  0.14737316166E+03  0.00000000000E+00 0.  1.
         12    1    6    6    0    0  0.27873783486E+02 -0.40814285660E+02  0.11899914970E+02  0.50836617669E+02  0.00000000000E+00 0. -1.
         -5    1    3    3    0  503 -0.14593392108E+02  0.75067497272E+01 -0.35046472892E+02  0.38982863503E+02  0.47000000000E+01 0.  1.
         11    1    4    4    0    0 -0.34635714056E+02  0.55860833681E+02  0.14194464747E+03  0.15642361833E+03  0.00000000000E+00 0. -1.
        -12    1    4    4    0    0  0.20106158768E+02  0.18800406960E+02  0.64862971924E+01  0.28280469825E+02  0.00000000000E+00 0.  1.
</event>
<event>
12    1  0.1596842E-001  0.1723799E+03  0.7818608E-02  0.1176057E+00
         21   -1    0    0  503  502  0.00000000000E+00  0.00000000000E+00  0.97174201717E+03  0.97174201717E+03  0.00000000000E+00 0.  1.
         21   -1    0    0  501  503 -0.00000000000E+00 -0.00000000000E+00 -0.20314779350E+03  0.20314779350E+03  0.00000000000E+00 0.  1.
          6    2    1    2  501    0 -0.37099073825E+01  0.81589429146E+00 -0.15741691717E+03  0.23344143726E+03  0.17233801009E+03 0.  0.
         24    2    3    3    0    0  0.11897879715E+02  0.56546369750E+02 -0.14293764608E+03  0.17359807335E+03  0.79787648985E+02 0.  0.
         -6    2    1    2    0  502  0.37099073825E+01 -0.81589429146E+00  0.92601114085E+03  0.94144837342E+03  0.16974680481E+03 0.  0.
        -24    2    5    5    0    0  0.32901522399E+02  0.41250105556E+02  0.79072624853E+03  0.79672176626E+03  0.82057853569E+02 0.  0.
          5    1    3    3  501    0 -0.15607787098E+02 -0.55730475458E+02 -0.14479271099E+02  0.59843363913E+02  0.47000000000E+01 0. -1.
        -13    1    4    4    0    0  0.42295627171E+02  0.31021747797E+02 -0.49682469157E+02  0.72246914507E+02  0.00000000000E+00 0.  1.
         14    1    4    4    0    0 -0.30397747456E+02  0.25524621953E+02 -0.93255176918E+02  0.10135115884E+03  0.00000000000E+00 0. -1.
         -5    1    5    5    0  502 -0.29191615017E+02 -0.42065999847E+02  0.13528489231E+03  0.14472660716E+03  0.47000000000E+01 0.  1.
         11    1    6    6    0    0  0.52862469572E+02  0.11836569762E+02  0.31119364245E+03  0.31587343696E+03  0.00000000000E+00 0. -1.
        -12    1    6    6    0    0 -0.19960947173E+02  0.29413535794E+02  0.47953260608E+03  0.48084832931E+03  0.00000000000E+00 0.  1.
</event>
<event>
12    1  0.1596842E-001  0.1780083E+03  0.7818608E-02  0.1170088E+00
         21   -1    0    0  501  502  0.00000000000E+00  0.00000000000E+00  0.28033152013E+03  0.28033152013E+03  0.00000000000E+00 0. -1.
         21   -1    0    0  502  503 -0.00000000000E+00 -0.00000000000E+00 -0.19100227204E+03  0.19100227204E+03  0.00000000000E+00 0. -1.
         -6    2    1    2    0  503  0.37410881036E+02 -0.55023628465E+01 -0.10665248267E+03  0.20751318891E+03  0.17394574297E+03 0.  0.
        -24    2    3    3    0    0  0.89432156806E+02 -0.18127093342E+02 -0.89826984775E+02  0.15120347099E+03  0.80417039624E+02 0.  0.
          6    2    1    2  501    0 -0.37410881036E+02  0.55023628465E+01  0.19598173076E+03  0.26382060326E+03  0.17251846827E+03 0.  0.
         24    2    5    5    0    0  0.44151763439E+02  0.23793907622E+02  0.98324563044E+02  0.13518912192E+03  0.78056714854E+02 0.  0.
          5    1    5    5  501    0 -0.81562644475E+02 -0.18291544775E+02  0.97657167721E+02  0.12863148134E+03  0.47000000000E+01 0. -1.
        -13    1    6    6    0    0  0.39539568647E+01  0.35255557647E+02  0.90490134506E+01  0.36612467334E+02  0.00000000000E+00 0.  1.
         14    1    6    6    0    0  0.40197806574E+02 -0.11461650025E+02  0.89275549593E+02  0.98576654588E+02  0.00000000000E+00 0. -1.
         -5    1    3    3    0  503 -0.52021275770E+02  0.12624730495E+02 -0.16825497892E+02  0.56309717919E+02  0.47000000000E+01 0.  1.
         13    1    4    4    0    0  0.62067066718E+02  0.10674996325E+02 -0.91913211315E+02  0.11141954376E+03  0.00000000000E+00 0. -1.
        -14    1    4    4    0    0  0.27365090088E+02 -0.28802089667E+02  0.20862265396E+01  0.39783927231E+02  0.00000000000E+00 0.  1.
</event>
<event>
12    1  0.1596842E-001  0.1860954E+03  0.7818608E-02  0.1163065E+00
         21   -1    0    0  503  502  0.00000000000E+00  0.00000000000E+00  0.67769850489E+02  0.67769850489E+02  0.00000000000E+00 0. -1.
         21   -1    0    0  501  503 -0.00000000000E+00 -0.00000000000E+00 -0.83625591177E+03  0.83625591177E+03  0.00000000000E+00 0. -1.
          6    2    1    2  501    0 -0.13337527044E+02  0.63735086332E+02 -0.67403729141E+03  0.69925515437E+03  0.17433143676E+03 0.  0.
         24    2    3    3    0    0 -0.40248676737E+02  0.30058239675E+02 -0.63124476736E+03  0.63833200530E+03  0.80463276804E+02 0.  0.
         -6    2    1    2    0  502  0.13337527044E+02 -0.63735086332E+02 -0.94448769872E+02  0.20477060789E+03  0.16961833883E+03 0.  0.
        -24    2    5    5    0    0 -0.73370282949E+01 -0.10640968139E+03 -0.66184166645E+02  0.14936721361E+03  0.80952877099E+02 0.  0.
          5    1    3    3  501    0  0.26911149693E+02  0.33676846657E+02 -0.42792524051E+02  0.60923149075E+02  0.47000000000E+01 0. -1.
        -11    1    4    4    0    0 -0.36653199949E+02  0.22178944791E+02 -0.62739174608E+03  0.62885273770E+03  0.00000000000E+00 0.  1.
         12    1    4    4    0    0 -0.35954767873E+01  0.78792948836E+01 -0.38530212755E+01  0.94792675952E+01  0.00000000000E+00 0. -1.
         -5    1    5    5    0  502  0.20674555339E+02  0.42674595057E+02 -0.28264603227E+02  0.55403394276E+02  0.47000000000E+01 0.  1.
         13    1    6    6    0    0  0.20873756155E+02 -0.97796999667E+02 -0.66098866228E+02  0.11987087618E+03  0.00000000000E+00 0. -1.
        -14    1    6    6    0    0 -0.28210784450E+02 -0.86126817217E+01 -0.85300417751E-01  0.29496337432E+02  0.00000000000E+00 0.  1.
</event>
<event>
12    1  0.1596842E-001  0.2162737E+03  0.7818608E-02  0.1138509E+00
         21   -1    0    0  503  502  0.00000000000E+00  0.00000000000E+00  0.47759981190E+03  0.47759981190E+03  0.00000000000E+00 0. -1.
         21   -1    0    0  501  503 -0.00000000000E+00 -0.00000000000E+00 -0.94602647285E+02  0.94602647285E+02  0.00000000000E+00 0.  1.
          6    2    1    2  501    0 -0.80528097249E+02 -0.81172100182E+02  0.16874213108E+03  0.27431408550E+03  0.18357730363E+03 0.  0.
         24    2    3    3    0    0 -0.30064963247E+02 -0.10861005702E+03  0.58736269931E+02  0.15012572511E+03  0.79923322217E+02 0.  0.
         -6    2    1    2    0  502  0.80528097249E+02  0.81172100182E+02  0.21425503354E+03  0.29788837369E+03  0.17250675201E+03 0.  0.
        -24    2    5    5    0    0  0.46538395327E+02 -0.23104358293E+02  0.11706203589E+03  0.15126829177E+03  0.80491876840E+02 0.  0.
          5    1    3    3  501    0 -0.50463134002E+02  0.27437956838E+02  0.11000586115E+03  0.12418836039E+03  0.47000000000E+01 0. -1.
        -11    1    4    4    0    0 -0.38698917109E+02 -0.11250644354E+03  0.67864833624E+02  0.13697058687E+03  0.00000000000E+00 0.  1.
         12    1    4    4    0    0  0.86339538616E+01  0.38963865202E+01 -0.91285636931E+01  0.13155138247E+02  0.00000000000E+00 0. -1.
         -5    1    5    5    0  502  0.33989701922E+02  0.10427645848E+03  0.97192997645E+02  0.14662008191E+03  0.47000000000E+01 0.  1.
         11    1    6    6    0    0  0.38753268840E+02  0.23943154652E+02  0.74640187219E+02  0.87442827314E+02  0.00000000000E+00 0. -1.
        -12    1    6    6    0    0  0.77851264867E+01 -0.47047512945E+02  0.42421848672E+02  0.63825464460E+02  0.00000000000E+00 0.  1.
</event>
<event>
12    1  0.1596842E-001  0.1817855E+03  0.7818608E-02  0.1166508E+00
         21   -1    0    0  503  502  0.00000000000E+00  0.00000000000E+00  0.26399225227E+03  0.26399225227E+03  0.00000000000E+00 0.  1.
         21   -1    0    0  501  503 -0.00000000000E+00 -0.00000000000E+00 -0.19403212120E+03  0.19403212120E+03  0.00000000000E+00 0.  1.
          6    2    1    2  501    0 -0.51863803709E+01  0.54600485371E+02 -0.10252331534E+03  0.20870314890E+03  0.17331434628E+03 0.  0.
         24    2    3    3    0    0  0.17174525693E+02  0.51944569041E+02 -0.13649932514E+03  0.16767238906E+03  0.80552850394E+02 0.  0.
         -6    2    1    2    0  502  0.51863803709E+01 -0.54600485371E+02  0.17248344641E+03  0.24932122456E+03  0.17147134509E+03 0.  0.
        -24    2    5    5    0    0 -0.29141172759E+02 -0.51624918188E+02  0.18710788117E+03  0.21159591481E+03  0.79051450607E+02 0.  0.
          5    1    3    3  501    0 -0.22360906063E+02  0.26559163307E+01  0.33976009790E+02  0.41030759837E+02  0.47000000000E+01 0. -1.
        -11    1    4    4    0    0  0.21657810230E+01  0.59847599269E+02 -0.45779149937E+02  0.75380079031E+02  0.00000000000E+00 0.  1.
         12    1    4    4    0    0  0.15008744670E+02 -0.79030302284E+01 -0.90720175198E+02  0.92292310033E+02  0.00000000000E+00 0. -1.
         -5    1    5    5    0  502  0.34327553130E+02 -0.29755671836E+01 -0.14624434754E+02  0.37725309751E+02  0.47000000000E+01 0.  1.
         13    1    6    6    0    0 -0.44242815370E+02 -0.12078906145E+01  0.65097828522E+02  0.78718568266E+02  0.00000000000E+00 0. -1.
        -14    1    6    6    0    0  0.15101642611E+02 -0.50417027573E+02  0.12201005265E+03  0.13287734655E+03  0.00000000000E+00 0.  1.
</event>
<event>
12    1  0.1596842E-001  0.1874306E+03  0.7818608E-02  0.1161085E+00
         21   -1    0    0  503  502  0.00000000000E+00  0.00000000000E+00  0.83994573140E+02  0.83994573140E+02  0.00000000000E+00 0.  1.
         21   -1    0    0  501  503 -0.00000000000E+00 -0.00000000000E+00 -0.45208862143E+03  0.45208862143E+03  0.00000000000E+00 0.  1.
          6    2    1    2  501    0  0.75937142596E+02 -0.56127476393E+01 -0.26088572018E+03  0.32123449970E+03  0.17126672836E+03 0.  0.
         24    2    3    3    0    0  0.11381136550E+03  0.84151825747E+01 -0.16290496829E+03  0.21515171445E+03  0.82026759794E+02 0.  0.
         -6    2    1    2    0  502 -0.75937142596E+02  0.56127476393E+01 -0.10720832812E+03  0.21484869487E+03  0.16990698488E+03 0.  0.
        -24    2    5    5    0    0  0.22831452404E+02  0.18912880584E+02 -0.35083494382E+02  0.91738132630E+02  0.79410711680E+02 0.  0.
          5    1    3    3  501    0 -0.37874222900E+02 -0.14027930214E+02 -0.97980751888E+02  0.10608278525E+03  0.47000000000E+01 0. -1.
        -13    1    4    4    0    0  0.10943645642E+03  0.41756250980E+01 -0.17217805233E+03  0.20405650086E+03  0.00000000000E+00 0.  1.
         14    1    4    4    0    0  0.43749090739E+01  0.42395574767E+01  0.92730840382E+01  0.11095213589E+02  0.00000000000E+00 0. -1.
         -5    1    5    5    0  502 -0.98768595000E+02 -0.13300132944E+02 -0.72124833734E+02  0.12311056224E+03  0.47000000000E+01 0.  1.
         11    1    6    6    0    0  0.25987192347E+02 -0.15509367320E+01 -0.56339906185E+02  0.62063875159E+02  0.00000000000E+00 0. -1.
        -12    1    6    6    0    0 -0.31557399427E+01  0.20463817316E+02  0.21256411803E+02  0.29674257471E+02  0.00000000000E+00 0.  1.
</event>
<event>
12    1  0.1596842E-001  0.2044038E+03  0.7818608E-02  0.1146148E+00
         21   -1    0    0  503  502  0.00000000000E+00  0.00000000000E+00  0.16151904370E+03  0.16151904370E+03  0.00000000000E+00 0.  1.
         21   -1    0    0  501  503 -0.00000000000E+00 -0.00000000000E+00 -0.32009846515E+03  0.32009846515E+03  0.00000000000E+00 0.  1.
          6    2    1    2  501    0  0.10581980333E+03  0.34722199781E+02 -0.18521035396E+03  0.27583292002E+03  0.17139854906E+03 0.  0.
         24    2    3    3    0    0  0.68527663996E+02  0.52542801067E+02 -0.20006510718E+03  0.23166244143E+03  0.78642564681E+02 0.  0.
         -6    2    1    2    0  502 -0.10581980333E+03 -0.34722199781E+02  0.26630932510E+02  0.20578458883E+03  0.17098136886E+03 0.  0.
        -24    2    5    5    0    0  0.12167188409E+02 -0.66585199201E+01 -0.53585142025E+01  0.80269987894E+02  0.78880801978E+02 0.  0.
          5    1    3    3  501    0  0.37292139333E+02 -0.17820601285E+02  0.14854753223E+02  0.44170478597E+02  0.47000000000E+01 0. -1.
        -13    1    4    4    0    0  0.65100034432E+02  0.15680200772E+01 -0.10046556345E+03  0.11972385981E+03  0.00000000000E+00 0.  1.
         14    1    4    4    0    0  0.34276295640E+01  0.50974780990E+02 -0.99599543734E+02  0.11193858161E+03  0.00000000000E+00 0. -1.
         -5    1    5    5    0  502 -0.11798699174E+03 -0.28063679861E+02  0.31989446713E+02  0.12551460093E+03  0.47000000000E+01 0.  1.
         13    1    6    6    0    0  0.16839666562E+02  0.18429103280E+02 -0.33824939086E+02  0.42039656538E+02  0.00000000000E+00 0. -1.
        -14    1    6    6    0    0 -0.46724781532E+01 -0.25087623200E+02  0.28466424884E+02  0.38230331356E+02  0.00000000000E+00 0.  1.
</event>
<event>
12    1  0.1596842E-001  0.2010730E+03  0.7818608E-02  0.1148962E+00
         21   -1    0    0  503  502  0.00000000000E+00  0.00000000000E+00  0.10669321189E+03  0.10669321189E+03  0.00000000000E+00 0.  1.
         21   -1    0    0  501  503 -0.00000000000E+00 -0.00000000000E+00 -0.74421421654E+03  0.74421421654E+03  0.00000000000E+00 0. -1.
          6    2    1    2  501    0 -0.10205433281E+03 -0.11617366723E+02 -0.61752354700E+03  0.64943488022E+03  0.17285914061E+03 0.  0.
         24    2    3    3    0    0 -0.18352010865E+02 -0.56663050451E+02 -0.22625275156E+03  0.24675620226E+03  0.78427152028E+02 0.  0.
         -6    2    1    2    0  502  0.10205433281E+03  0.11617366723E+02 -0.19997457649E+02  0.20147254822E+03  0.17216631295E+03 0.  0.
        -24    2    5    5    0    0  0.17412454486E+02  0.60251314861E+02 -0.14976465551E+02  0.10361137696E+03  0.81102456196E+02 0.  0.
          5    1    3    3  501    0 -0.83702321949E+02  0.45045683728E+02 -0.39127079544E+03  0.40267867796E+03  0.47000000000E+01 0. -1.
        -11    1    4    4    0    0 -0.20977271088E+02 -0.57858739846E+02 -0.23216173365E+03  0.24018066169E+03  0.00000000000E+00 0.  1.
         12    1    4    4    0    0  0.26252602226E+01  0.11956893948E+01  0.59089820920E+01  0.65755405655E+01  0.00000000000E+00 0. -1.
         -5    1    5    5    0  502  0.84641878328E+02 -0.48633948138E+02 -0.50209920971E+01  0.97861171258E+02  0.47000000000E+01 0.  1.
         11    1    6    6    0    0  0.24408700709E+02  0.63031911114E+02  0.17868298447E+02  0.69914823738E+02  0.00000000000E+00 0. -1.
        -12    1    6    6    0    0 -0.69962462230E+01 -0.27805962530E+01 -0.32844763999E+02  0.33696553219E+02  0.00000000000E+00 0.  1.
</event>
<event>
12    1  0.1596842E-001  0.2126122E+03  0.7818608E-02  0.1139967E+00
         21   -1    0    0  501  502  0.00000000000E+00  0.00000000000E+00  0.30690078037E+03  0.30690078037E+03  0.00000000000E+00 0. -1.
         21   -1    0    0  502  503 -0.00000000000E+00 -0.00000000000E+00 -0.17844917306E+03  0.17844917306E+03  0.00000000000E+00 0. -1.
         -6    2    1    2    0  503  0.16545697505E+02  0.12345563840E+03  0.16847828149E+03  0.27127266986E+03  0.17230460040E+03 0.  0.
        -24    2    3    3    0    0 -0.52771300596E+02  0.78350052682E+02  0.70675652986E+02  0.14310557490E+03  0.80997634039E+02 0.  0.
          6    2    1    2  501    0 -0.16545697505E+02 -0.12345563840E+03 -0.40026674178E+02  0.21407728358E+03  0.16944584367E+03 0.  0.
         24    2    5    5    0    0 -0.71219195694E+02 -0.53238628504E+02 -0.23031813080E+02  0.12335498650E+03  0.82337493766E+02 0.  0.
          5    1    5    5  501    0  0.54673498189E+02 -0.70217009901E+02 -0.16994861097E+02  0.90722297079E+02  0.47000000000E+01 0. -1.
        -13    1    6    6    0    0  0.15233159344E+02  0.27323347658E+01  0.56028295124E+01  0.16459237389E+02  0.00000000000E+00 0.  1.
         14    1    6    6    0    0 -0.86452355038E+02 -0.55970963270E+02 -0.28634642593E+02  0.10689574911E+03  0.00000000000E+00 0. -1.
         -5    1    3    3    0  503  0.69316998101E+02  0.45105585723E+02  0.97802628502E+02  0.12816709496E+03  0.47000000000E+01 0.  1.
         13    1    4    4    0    0 -0.47898212075E+01  0.72836259020E+02  0.57840049810E+02  0.93131811843E+02  0.00000000000E+00 0. -1.
        -14    1    4    4    0    0 -0.47981479388E+02  0.55137936615E+01  0.12835603176E+02  0.49973763054E+02  0.00000000000E+00 0.  1.
</event>
<event>
12    1  0.1596842E-001  0.3278045E+03  0.7818608E-02  0.1072296E+00
         21   -1    0    0  503  502  0.00000000000E+00  0.00000000000E+00  0.45893953549E+03  0.45893953549E+03  0.00000000000E+00 0. -1.
         21   -1    0    0  501  503 -0.00000000000E+00 -0.00000000000E+00 -0.23826740703E+03  0.23826740703E+03  0.00000000000E+00 0.  1.
          6    2    1    2  501    0  0.10725153513E+03  0.25601821084E+03  0.58076153028E+02  0.33129272846E+03  0.17127117771E+03 0.  0.
         24    2    3    3    0    0  0.14125303159E+03  0.14815239449E+03  0.33184698858E+02  0.21539272593E+03  0.58234450437E+02 0.  0.
         -6    2    1    2    0  502 -0.10725153513E+03 -0.25601821084E+03  0.16259597543E+03  0.36591421406E+03  0.17437759248E+03 0.  0.
        -24    2    5    5    0    0  0.16641755429E+01 -0.11191917004E+03  0.11763102705E+03  0.17971243595E+03  0.77011888743E+02 0.  0.
          5    1    3    3  501    0 -0.34001496459E+02  0.10786581634E+03  0.24891454170E+02  0.11590000253E+03  0.47000000000E+01 0. -1.
        -13    1    4    4    0    0  0.28824647312E+02  0.13608175332E+02  0.23848644116E+02  0.39809553560E+02  0.00000000000E+00 0.  1.
         14    1    4    4    0    0  0.11242838428E+03  0.13454421916E+03  0.93360547425E+01  0.17558317237E+03  0.00000000000E+00 0. -1.
         -5    1    5    5    0  502 -0.10891571067E+03 -0.14409904079E+03  0.44964948383E+02  0.18620177811E+03  0.47000000000E+01 0.  1.
         13    1    6    6    0    0 -0.29076503214E+02 -0.56150195575E+02  0.26554788942E+02  0.68581661675E+02  0.00000000000E+00 0. -1.
        -14    1    6    6    0    0  0.30740678757E+02 -0.55768974467E+02  0.91076238107E+02  0.11113077428E+03  0.00000000000E+00 0.  1.
</event>
<event>
12    1  0.1596842E-001  0.2194232E+03  0.7818608E-02  0.1134486E+00
         21   -1    0    0  503  502  0.00000000000E+00  0.00000000000E+00  0.43599208405E+03  0.43599208405E+03  0.00000000000E+00 0.  1.
         21   -1    0    0  501  503 -0.00000000000E+00 -0.00000000000E+00 -0.14137077961E+03  0.14137077961E+03  0.00000000000E+00 0. -1.
          6    2    1    2  501    0  0.23554416880E+02 -0.13388933829E+03  0.11013067825E+02  0.21878211322E+03  0.17106478287E+03 0.  0.
         24    2    3    3    0    0  0.21794802648E+02 -0.69036919588E+01  0.34690994253E+02  0.89510365274E+02  0.79284084305E+02 0.  0.
         -6    2    1    2    0  502 -0.23554416880E+02  0.13388933829E+03  0.28360823661E+03  0.35858075044E+03  0.17223634126E+03 0.  0.
        -24    2    5    5    0    0  0.89573816123E+01  0.70313503961E+01  0.55913606982E+02  0.95870072137E+02  0.77039371181E+02 0.  0.
          5    1    3    3  501    0  0.17596142321E+01 -0.12698564633E+03 -0.23677926428E+02  0.12927174794E+03  0.47000000000E+01 0. -1.
        -13    1    4    4    0    0  0.86832831492E+00 -0.40993362398E+02  0.90255013777E+01  0.41984156892E+02  0.00000000000E+00 0.  1.
         14    1    4    4    0    0  0.20926474333E+02  0.34089670439E+02  0.25665492875E+02  0.47526208382E+02  0.00000000000E+00 0. -1.
         -5    1    5    5    0  502 -0.32511798492E+02  0.12685798789E+03  0.22769462963E+03  0.26271067830E+03  0.47000000000E+01 0.  1.
         11    1    6    6    0    0  0.41865026078E+01  0.28703481204E+02 -0.64157438810E+01  0.29708221200E+02  0.00000000000E+00 0. -1.
        -12    1    6    6    0    0  0.47708790046E+01 -0.21672130808E+02  0.62329350863E+02  0.66161850936E+02  0.00000000000E+00 0.  1.
</event>
<event>
12    1  0.1596842E-001  0.2990934E+03  0.7818608E-02  0.1085759E+00
         21   -1    0    0  503  502  0.00000000000E+00  0.00000000000E+00  0.34070137635E+03  0.34070137635E+03  0.00000000000E+00 0.  1.
         21   -1    0    0  501  503 -0.00000000000E+00 -0.00000000000E+00 -0.26778678857E+03  0.26778678857E+03  0.00000000000E+00 0.  1.
          6    2    1    2  501    0  0.23585651265E+03  0.63548980360E+02  0.80766928629E+02  0.30980660110E+03  0.17259798916E+03 0.  0.
         24    2    3    3    0    0  0.38592773387E+02 -0.69693183057E+00  0.18778453553E+01  0.87801877003E+02  0.78840062344E+02 0.  0.
         -6    2    1    2    0  502 -0.23585651265E+03 -0.63548980360E+02 -0.78523408562E+01  0.29868156382E+03  0.17170395990E+03 0.  0.
        -24    2    5    5    0    0 -0.59813162157E+02 -0.57828135499E+01  0.38507949405E+02  0.10763298939E+03  0.80566388381E+02 0.  0.
          5    1    3    3  501    0  0.19726373926E+03  0.64245912191E+02  0.78889083274E+02  0.22200472410E+03  0.47000000000E+01 0. -1.
        -13    1    4    4    0    0  0.46466084830E+02 -0.22712393090E+02  0.22710323818E+02  0.56486358063E+02  0.00000000000E+00 0.  1.
         14    1    4    4    0    0 -0.78733114435E+01  0.22015461260E+02 -0.20832478463E+02  0.31315518940E+02  0.00000000000E+00 0. -1.
         -5    1    5    5    0  502 -0.17604335049E+03 -0.57766166810E+02 -0.46360290261E+02  0.19104857443E+03  0.47000000000E+01 0.  1.
         11    1    6    6    0    0  0.56433572358E+01 -0.29216724732E+02  0.19428381986E+02  0.35537677352E+02  0.00000000000E+00 0. -1.
        -12    1    6    6    0    0 -0.65456519393E+02  0.23433911182E+02  0.19079567419E+02  0.72095312034E+02  0.00000000000E+00 0.  1.
</event>
<event>
12    1  0.1596842E-001  0.1863335E+03  0.7818608E-02  0.1162390E+00
         21   -1    0    0  503  502  0.00000000000E+00  0.00000000000E+00  0.45532928091E+03  0.45532928091E+03  0.00000000000E+00 0. -1.
         21   -1    0    0  501  503 -0.00000000000E+00 -0.00000000000E+00 -0.14167320464E+03  0.14167320464E+03  0.00000000000E+00 0. -1.
          6    2    1    2  501    0 -0.68421178067E+00  0.71780357123E+02 -0.48138066365E+02  0.19004404754E+03  0.16925300221E+03 0.  0.
         24    2    3    3    0    0  0.48294363081E+01 -0.26403179411E+02 -0.11606204387E+02  0.85034171335E+02  0.79847698629E+02 0.  0.
         -6    2    1    2    0  502  0.68421178067E+00 -0.71780357123E+02  0.36179414264E+03  0.40695843800E+03  0.17195139080E+03 0.  0.
        -24    2    5    5    0    0  0.74752215288E+01  0.13238673649E+02  0.26785973589E+03  0.27999341849E+03  0.80102027903E+02 0.  0.
          5    1    3    3  501    0 -0.55136480888E+01  0.98183536534E+02 -0.36531861978E+02  0.10500987621E+03  0.47000000000E+01 0. -1.
        -13    1    4    4    0    0 -0.40815231464E+01 -0.46018253841E+02 -0.31333668402E+02  0.55822372695E+02  0.00000000000E+00 0.  1.
         14    1    4    4    0    0  0.89109594545E+01  0.19615074431E+02  0.19727464015E+02  0.29211798640E+02  0.00000000000E+00 0. -1.
         -5    1    5    5    0  502 -0.67910097482E+01 -0.85019030773E+02  0.93934406755E+02  0.12696501951E+03  0.47000000000E+01 0.  1.
         13    1    6    6    0    0  0.29703757424E+01 -0.33966065685E+02  0.11488123074E+03  0.11983411003E+03  0.00000000000E+00 0. -1.
        -14    1    6    6    0    0  0.45048457864E+01  0.47204739334E+02  0.15297850514E+03  0.16015930846E+03  0.00000000000E+00 0.  1.
</event>
<event>
12    1  0.1596842E-001  0.2728078E+03  0.7818608E-02  0.1099846E+00
         21   -1    0    0  501  502  0.00000000000E+00  0.00000000000E+00  0.37584009464E+03  0.37584009464E+03  0.00000000000E+00 0. -1.
         21   -1    0    0  502  503 -0.00000000000E+00 -0.00000000000E+00 -0.19985265061E+03  0.19985265061E+03  0.00000000000E+00 0.  1.
         -6    2    1    2    0  503 -0.18684228778E+03 -0.10029766091E+03  0.54920163074E+02  0.27828096201E+03  0.17162286624E+03 0.  0.
        -24    2    3    3    0    0 -0.48268696093E+02 -0.52740933577E+01  0.59100079085E+02  0.11013911593E+03  0.79247223465E+02 0.  0.
          6    2    1    2  501    0  0.18684228778E+03  0.10029766091E+03  0.12106728096E+03  0.29741178324E+03  0.16978463124E+03 0.  0.
         24    2    5    5    0    0  0.18861330339E+03  0.83378449715E+02  0.54191630156E+02  0.22824648216E+03  0.81441879548E+02 0.  0.
          5    1    5    5  501    0 -0.17710156133E+01  0.16919211198E+02  0.66875650807E+02  0.69165301089E+02  0.47000000000E+01 0. -1.
        -11    1    6    6    0    0  0.41375665851E+02  0.59421521620E+02  0.13938039303E+02  0.73736909997E+02  0.00000000000E+00 0.  1.
         12    1    6    6    0    0  0.14723763754E+03  0.23956928095E+02  0.40253590853E+02  0.15450957216E+03  0.00000000000E+00 0. -1.
         -5    1    3    3    0  503 -0.13857359169E+03 -0.95023567555E+02 -0.41799160111E+01  0.16814184607E+03  0.47000000000E+01 0.  1.
         11    1    4    4    0    0 -0.69035938922E+02 -0.13772083783E+02  0.47021165170E+02  0.84655898368E+02  0.00000000000E+00 0. -1.
        -12    1    4    4    0    0  0.20767242829E+02  0.84979904258E+01  0.12078913915E+02  0.25483217563E+02  0.00000000000E+00 0.  1.
</event>
<event>
12    1  0.1596842E-001  0.2651650E+03  0.7818608E-02  0.1104121E+00
         21   -1    0    0  503  502  0.00000000000E+00  0.00000000000E+00  0.13304131715E+03  0.13304131715E+03  0.00000000000E+00 0.  1.
         21   -1    0    0  501  503 -0.00000000000E+00 -0.00000000000E+00 -0.53166174861E+03  0.53166174861E+03  0.00000000000E+00 0.  1.
          6    2    1    2  501    0 -0.88217838420E+01  0.20153127569E+03 -0.22723256981E+03  0.34920927568E+03  0.17210403391E+03 0.  0.
         24    2    3    3    0    0 -0.43933000651E+02  0.16952008408E+03 -0.10805759947E+03  0.22082595321E+03  0.80127956133E+02 0.  0.
         -6    2    1    2    0  502  0.88217838420E+01 -0.20153127569E+03 -0.17138786165E+03  0.31549379007E+03  0.17166785808E+03 0.  0.
        -24    2    5    5    0    0  0.26410803397E+02 -0.25694137047E+02 -0.56381053374E+02  0.10459872402E+03  0.80027187077E+02 0.  0.
          5    1    3    3  501    0  0.35111216809E+02  0.32011191611E+02 -0.11917497034E+03  0.12838332247E+03  0.47000000000E+01 0. -1.
        -13    1    4    4    0    0 -0.24656661757E+01  0.14287504093E+03 -0.86415560013E+02  0.16699402936E+03  0.00000000000E+00 0.  1.
         14    1    4    4    0    0 -0.41467334475E+02  0.26645043151E+02 -0.21642039456E+02  0.53831923845E+02  0.00000000000E+00 0. -1.
         -5    1    5    5    0  502 -0.17589019555E+02 -0.17583713864E+03 -0.11500680828E+03  0.21089506606E+03  0.47000000000E+01 0.  1.
         11    1    6    6    0    0  0.44295016963E+02 -0.29716993608E+02 -0.65214668299E+02  0.84250229663E+02  0.00000000000E+00 0. -1.
        -12    1    6    6    0    0 -0.17884213566E+02  0.40228565605E+01  0.88336149249E+01  0.20348494353E+02  0.00000000000E+00 0.  1.
</event>
<event>
12    1  0.1596842E-001  0.1817848E+03  0.7818608E-02  0.1166382E+00
         21   -1    0    0  501  502  0.00000000000E+00  0.00000000000E+00  0.42624156799E+03  0.42624156799E+03  0.00000000000E+00 0.  1.
         21   -1    0    0  502  503 -0.00000000000E+00 -0.00000000000E+00 -0.78374391075E+02  0.78374391075E+02  0.00000000000E+00 0.  1.
         -6    2    1    2    0  503  0.91393908734E+01  0.60332828462E+02  0.14114211507E+03  0.23014522370E+03  0.17123711248E+03 0.  0.
        -24    2    3    3    0    0  0.60254313423E+02  0.63347904652E+02  0.13380374882E+03  0.17820518509E+03  0.78804222513E+02 0.  0.
          6    2    1    2  501    0 -0.91393908734E+01 -0.60332828462E+02  0.20672506185E+03  0.27447073537E+03  0.16992749842E+03 0.  0.
         24    2    5    5    0    0 -0.20714960140E+02 -0.95619493237E+02  0.20308299236E+03  0.23686093365E+03  0.72720031935E+02 0.  0.
          5    1    5    5  501    0  0.11575569266E+02  0.35286664775E+02  0.36420694905E+01  0.37609801714E+02  0.47000000000E+01 0. -1.
        -13    1    6    6    0    0 -0.38773017176E+02 -0.36199078854E+02  0.55645139478E+02  0.76877185942E+02  0.00000000000E+00 0.  1.
         14    1    6    6    0    0  0.18058057036E+02 -0.59420414383E+02  0.14743785288E+03  0.15998374771E+03  0.00000000000E+00 0. -1.
         -5    1    3    3    0  503 -0.51114922550E+02 -0.30150761900E+01  0.73383662535E+01  0.51940038612E+02  0.47000000000E+01 0.  1.
         13    1    4    4    0    0  0.95047184071E+01 -0.18841453790E+02  0.24507620596E+02  0.32341359282E+02  0.00000000000E+00 0. -1.
        -14    1    4    4    0    0  0.50749595016E+02  0.82189358443E+02  0.10929612822E+03  0.14586382581E+03  0.00000000000E+00 0.  1.
</event>
<event>
12    1  0.1596842E-001  0.2088618E+03  0.7818608E-02  0.1143102E+00
         21   -1    0    0  503  502  0.00000000000E+00  0.00000000000E+00  0.20935255170E+04  0.20935255170E+04  0.00000000000E+00 0. -1.
         21   -1    0    0  501  503 -0.00000000000E+00 -0.00000000000E+00 -0.60786672535E+02  0.60786672535E+02  0.00000000000E+00 0. -1.
          6    2    1    2  501    0 -0.47840416003E+02  0.10136092546E+03  0.13713539310E+03  0.24723701679E+03  0.17250299655E+03 0.  0.
         24    2    3    3    0    0  0.59181876893E-01  0.12646220515E+03  0.84632951026E+02  0.17171852804E+03  0.79572756883E+02 0.  0.
         -6    2    1    2    0  502  0.47840416003E+02 -0.10136092546E+03  0.18956034513E+04  0.19070751727E+04  0.17623997008E+03 0.  0.
        -24    2    5    5    0    0  0.85155742453E+02 -0.58799272231E+02  0.16429839179E+04  0.16481492246E+04  0.79314924892E+02 0.  0.
          5    1    3    3  501    0 -0.47899597880E+02 -0.25101279696E+02  0.52502442074E+02  0.75518488750E+02  0.47000000000E+01 0. -1.
        -13    1    4    4    0    0  0.27589230388E+02  0.34976482669E+02  0.56845448080E+02  0.72221360696E+02  0.00000000000E+00 0.  1.
         14    1    4    4    0    0 -0.27530048511E+02  0.91485722485E+02  0.27787502946E+02  0.99497167345E+02  0.00000000000E+00 0. -1.
         -5    1    5    5    0  502 -0.37315326451E+02 -0.42561653227E+02  0.25261953343E+03  0.25892594807E+03  0.47000000000E+01 0.  1.
         11    1    6    6    0    0  0.54200359048E+02 -0.42138135614E+01  0.11354458009E+04  0.11367464986E+04  0.00000000000E+00 0. -1.
        -12    1    6    6    0    0  0.30955383405E+02 -0.54585458670E+02  0.50753811697E+03  0.51140272608E+03  0.00000000000E+00 0.  1.
</event>
<event>
12    1  0.1596842E-001  0.1960566E+03  0.7818608E-02  0.1153342E+00
         21   -1    0    0  503  502  0.00000000000E+00  0.00000000000E+00  0.23569578857E+03  0.23569578857E+03  0.00000000000E+00 0.  1.
         21   -1    0    0  501  503 -0.00000000000E+00 -0.00000000000E+00 -0.17447245275E+03  0.17447245275E+03  0.00000000000E+00 0. -1.
          6    2    1    2  501    0  0.57758325078E+02  0.73908280600E+02 -0.23714621735E+02  0.19748559087E+03  0.17216189259E+03 0.  0.
         24    2    3    3    0    0 -0.30912717024E+02  0.44767537471E+02  0.12157032283E+02  0.97382632971E+02  0.79848952940E+02 0.  0.
         -6    2    1    2    0  502 -0.57758325078E+02 -0.73908280600E+02  0.84937957557E+02  0.21268265045E+03  0.17094149616E+03 0.  0.
        -24    2    5    5    0    0 -0.12634568051E+02 -0.13670616495E+02 -0.20150027842E+02  0.83336972899E+02  0.78692498784E+02 0.  0.
          5    1    3    3  501    0  0.88671042102E+02  0.29140743129E+02 -0.35871654018E+02  0.10010295790E+03  0.47000000000E+01 0. -1.
        -11    1    4    4    0    0  0.19506208624E+02  0.28406550182E+01 -0.16609288192E+02  0.25776538752E+02  0.00000000000E+00 0.  1.
         12    1    4    4    0    0 -0.50418925648E+02  0.41926882453E+02  0.28766320475E+02  0.71606094219E+02  0.00000000000E+00 0. -1.
         -5    1    5    5    0  502 -0.45123757028E+02 -0.60237664104E+02  0.10508798540E+03  0.12934567755E+03  0.47000000000E+01 0.  1.
         13    1    6    6    0    0  0.15803531091E+02 -0.29275800360E+02  0.14127047869E+02  0.36144122111E+02  0.00000000000E+00 0. -1.
        -14    1    6    6    0    0 -0.28438099142E+02  0.15605183864E+02 -0.34277075711E+02  0.47192850789E+02  0.00000000000E+00 0.  1.
</event>
<event>
12    1  0.1596842E-001  0.2521447E+03  0.7818608E-02  0.1111965E+00
         21   -1    0    0  501  502  0.00000000000E+00  0.00000000000E+00  0.13363424750E+03  0.13363424750E+03  0.00000000000E+00 0.  1.
         21   -1    0    0  502  503 -0.00000000000E+00 -0.00000000000E+00 -0.48406951724E+03  0.48406951724E+03  0.00000000000E+00 0. -1.
         -6    2    1    2    0  503  0.13317739699E+03  0.12766317521E+03 -0.13452599078E+03  0.28578698723E+03  0.17188034937E+03 0.  0.
        -24    2    3    3    0    0  0.23064372513E+02  0.69610883224E+02 -0.92019314778E+01  0.10908623283E+03  0.80233972284E+02 0.  0.
          6    2    1    2  501    0 -0.13317739699E+03 -0.12766317521E+03 -0.21590927896E+03  0.33191677751E+03  0.17180752335E+03 0.  0.
         24    2    5    5    0    0 -0.13628725818E+03 -0.36908793444E+02 -0.14909399772E+03  0.21907883684E+03  0.76354703988E+02 0.  0.
          5    1    5    5  501    0  0.31098611971E+01 -0.90754381769E+02 -0.66815281246E+02  0.11283794067E+03  0.47000000000E+01 0. -1.
        -13    1    6    6    0    0 -0.95587788597E+02 -0.53538935181E+02 -0.74494343907E+02  0.13248716988E+03  0.00000000000E+00 0.  1.
         14    1    6    6    0    0 -0.40699469586E+02  0.16630141737E+02 -0.74599653809E+02  0.86591666961E+02  0.00000000000E+00 0. -1.
         -5    1    3    3    0  503  0.11011302447E+03  0.58052291990E+02 -0.12532405930E+03  0.17670075439E+03  0.47000000000E+01 0.  1.
         13    1    4    4    0    0 -0.46849931661E+00 -0.11019100796E+02 -0.21531771585E+02  0.24192090889E+02  0.00000000000E+00 0. -1.
        -14    1    4    4    0    0  0.23532871830E+02  0.80629984020E+02  0.12329840107E+02  0.84894141946E+02  0.00000000000E+00 0.  1.
</event>
<event>
12    1  0.1596842E-001  0.1813184E+03  0.7818608E-02  0.1168234E+00
         21   -1    0    0  503  502  0.00000000000E+00  0.00000000000E+00  0.12473152348E+03  0.12473152348E+03  0.00000000000E+00 0. -1.
         21   -1    0    0  501  503 -0.00000000000E+00 -0.00000000000E+00 -0.30024766005E+03  0.30024766005E+03  0.00000000000E+00 0. -1.
          6    2    1    2  501    0 -0.52864888506E+02  0.17824823801E+02 -0.17007724159E+03  0.24357926418E+03  0.16520341719E+03 0.  0.
         24    2    3    3    0    0 -0.95901852189E+02  0.23509701290E+02 -0.14942765987E+03  0.19527819483E+03  0.77814372280E+02 0.  0.
         -6    2    1    2    0  502  0.52864888506E+02 -0.17824823801E+02 -0.54388949834E+01  0.18139991935E+03  0.17252225474E+03 0.  0.
        -24    2    5    5    0    0  0.32156110801E+02 -0.72895356168E+02 -0.32475494596E+02  0.11647931609E+03  0.78517672624E+02 0.  0.
          5    1    3    3  501    0  0.43036963683E+02 -0.56848774897E+01 -0.20649581718E+02  0.48301069349E+02  0.47000000000E+01 0. -1.
        -11    1    4    4    0    0 -0.23766202493E+02  0.61621157798E+01 -0.10706384101E+03  0.10984293379E+03  0.00000000000E+00 0.  1.
         12    1    4    4    0    0 -0.72135649696E+02  0.17347585510E+02 -0.42363818858E+02  0.85435261036E+02  0.00000000000E+00 0. -1.
         -5    1    5    5    0  502  0.20708777705E+02  0.55070532368E+02  0.27036599613E+02  0.64920603262E+02  0.47000000000E+01 0.  1.
         11    1    6    6    0    0  0.57660732199E+02 -0.59958574551E+02 -0.22267655852E+02  0.86114105680E+02  0.00000000000E+00 0. -1.
        -12    1    6    6    0    0 -0.25504621398E+02 -0.12936781617E+02 -0.10207838745E+02  0.30365210408E+02  0.00000000000E+00 0.  1.
</event>
<event>
12    1  0.1596842E-001  0.1883963E+03  0.7818608E-02  0.1161235E+00
         21   -1    0    0  503  502  0.00000000000E+00  0.00000000000E+00  0.78728198276E+03  0.78728198276E+03  0.00000000000E+00 0. -1.
         21   -1    0    0  501  503 -0.00000000000E+00 -0.00000000000E+00 -0.84856349150E+02  0.84856349150E+02  0.00000000000E+00 0.  1.
          6    2    1    2  501    0 -0.64120118357E+02  0.87036665845E+01  0.50432283119E+02  0.19502969723E+03  0.17693508479E+03 0.  0.
         24    2    3    3    0    0 -0.26328262491E+02 -0.59100270095E+02  0.92154931830E+00  0.10283967087E+03  0.79932029372E+02 0.  0.
         -6    2    1    2    0  502  0.64120118357E+02 -0.87036665845E+01  0.65199335049E+03  0.67710863469E+03  0.17086143710E+03 0.  0.
        -24    2    5    5    0    0  0.97037848489E+02  0.29175863041E+02  0.30722887421E+03  0.32867920162E+03  0.58076341169E+02 0.  0.
          5    1    3    3  501    0 -0.37791855866E+02  0.67803936680E+02  0.49510733801E+02  0.92190026362E+02  0.47000000000E+01 0. -1.
        -11    1    4    4    0    0 -0.52143965338E+02 -0.19966229110E+02  0.29505582205E+01  0.55913765925E+02  0.00000000000E+00 0.  1.
         12    1    4    4    0    0  0.25815702848E+02 -0.39134040985E+02 -0.20290089021E+01  0.46925904941E+02  0.00000000000E+00 0. -1.
         -5    1    5    5    0  502 -0.32917730133E+02 -0.37879529625E+02  0.34476447628E+03  0.34842943307E+03  0.47000000000E+01 0.  1.
         11    1    6    6    0    0  0.29538701428E+02 -0.17858627252E+02  0.89490239624E+02  0.95916465934E+02  0.00000000000E+00 0. -1.
        -12    1    6    6    0    0  0.67499147062E+02  0.47034490293E+02  0.21773863459E+03  0.23276273569E+03  0.00000000000E+00 0.  1.
</event>
<event>
12    1  0.1596842E-001  0.4658496E+03  0.7818608E-02  0.1023145E+00
         21   -1    0    0  503  502  0.00000000000E+00  0.00000000000E+00  0.45102262846E+03  0.45102262846E+03  0.00000000000E+00 0.  1.
         21   -1    0    0  501  503 -0.00000000000E+00 -0.00000000000E+00 -0.48072039667E+03  0.48072039667E+03  0.00000000000E+00 0.  1.
          6    2    1    2  501    0 -0.27374906432E+03 -0.33497555652E+03 -0.45235697594E+01  0.46521367481E+03  0.17104422488E+03 0.  0.
         24    2    3    3    0    0 -0.15663977246E+03 -0.98794873543E+02  0.17003773256E+02  0.20067366319E+03  0.75394598198E+02 0.  0.
         -6    2    1    2    0  502  0.27374906432E+03  0.33497555652E+03 -0.25174198458E+02  0.46652935032E+03  0.17282569474E+03 0.  0.
        -24    2    5    5    0    0  0.26218741851E+03  0.23919892915E+03 -0.47816251085E+02  0.36732457951E+03  0.81747065487E+02 0.  0.
          5    1    3    3  501    0 -0.11710929186E+03 -0.23618068298E+03 -0.21527343016E+02  0.26454001162E+03  0.47000000000E+01 0. -1.
        -13    1    4    4    0    0 -0.65010046926E+02 -0.82510292202E+02 -0.45584286707E+01  0.10514292079E+03  0.00000000000E+00 0.  1.
         14    1    4    4    0    0 -0.91629725535E+02 -0.16284581342E+02  0.21562201927E+02  0.95530742397E+02  0.00000000000E+00 0. -1.
         -5    1    5    5    0  502  0.11561645812E+02  0.95776627367E+02  0.22642052628E+02  0.99204770807E+02  0.47000000000E+01 0.  1.
         11    1    6    6    0    0  0.89731236244E+02  0.35267489482E+02 -0.25953858967E+01  0.96448051303E+02  0.00000000000E+00 0. -1.
        -12    1    6    6    0    0  0.17245618226E+03  0.20393143967E+03 -0.45220865189E+02  0.27087652821E+03  0.00000000000E+00 0.  1.
</event>
<event>
12    1  0.1596842E-001  0.2301181E+03  0.7818608E-02  0.1126653E+00
         21   -1    0    0  501  502  0.00000000000E+00  0.00000000000E+00  0.69511672881E+03  0.69511672881E+03  0.00000000000E+00 0. -1.
         21   -1    0    0  502  503 -0.00000000000E+00 -0.00000000000E+00 -0.11532231738E+03  0.11532231738E+03  0.00000000000E+00 0.  1.
         -6    2    1    2    0  503  0.10892098116E+03 -0.10560674016E+03  0.53503301620E+02  0.23625612905E+03  0.17302540717E+03 0.  0.
        -24    2    3    3    0    0  0.73575502924E+02  0.44978849907E+01  0.52820365687E+02  0.12051984384E+03  0.79381711552E+02 0.  0.
          6    2    1    2  501    0 -0.10892098116E+03  0.10560674016E+03  0.52629110981E+03  0.57418291713E+03  0.17229952512E+03 0.  0.
         24    2    5    5    0    0 -0.13189267615E+03  0.44555259947E+02  0.32225180574E+03  0.35991880531E+03  0.79463645179E+02 0.  0.
          5    1    5    5  501    0  0.22971694991E+02  0.61051480216E+02  0.20403930407E+03  0.21426411182E+03  0.47000000000E+01 0. -1.
        -13    1    6    6    0    0 -0.12053129245E+03  0.44510043409E+02  0.20379036289E+03  0.24091377800E+03  0.00000000000E+00 0.  1.
         14    1    6    6    0    0 -0.11361383705E+02  0.45216538173E-01  0.11846144285E+03  0.11900502732E+03  0.00000000000E+00 0. -1.
         -5    1    3    3    0  503  0.35345478235E+02 -0.11010462515E+03  0.68293593270E+00  0.11573628521E+03  0.47000000000E+01 0.  1.
         13    1    4    4    0    0 -0.80272729040E+00 -0.19662307331E+02  0.35243247514E+02  0.40365049189E+02  0.00000000000E+00 0. -1.
        -14    1    4    4    0    0  0.74378230214E+02  0.24160192322E+02  0.17577118173E+02  0.80154794655E+02  0.00000000000E+00 0.  1.
</event>
<event>
12    1  0.1596842E-001  0.2010874E+03  0.7818608E-02  0.1150235E+00
         21   -1    0    0  501  502  0.00000000000E+00  0.00000000000E+00  0.12561706806E+03  0.12561706806E+03  0.00000000000E+00 0.  1.
         21   -1    0    0  502  503 -0.00000000000E+00 -0.00000000000E+00 -0.35213464434E+03  0.35213464434E+03  0.00000000000E+00 0.  1.
         -6    2    1    2    0  503  0.83859043095E+02  0.37663561181E+02 -0.19616938195E+03  0.28092447799E+03  0.17884421425E+03 0.  0.
        -24    2    3    3    0    0  0.50088231725E+02 -0.35984196304E+02 -0.46778537160E+02  0.11091220081E+03  0.79432936554E+02 0.  0.
          6    2    1    2  501    0 -0.83859043095E+02 -0.37663561181E+02 -0.30348194324E+02  0.19682723441E+03  0.17137404809E+03 0.  0.
         24    2    5    5    0    0 -0.93110228526E+02  0.15390911932E+02  0.17204374202E+02  0.12482932943E+03  0.79874753001E+02 0.  0.
          5    1    5    5  501    0  0.92511854313E+01 -0.53054473113E+02 -0.47552568526E+02  0.71997904988E+02  0.47000000000E+01 0. -1.
        -11    1    6    6    0    0 -0.52156690356E+02 -0.18465805011E+02  0.38688854328E+02  0.67513952282E+02  0.00000000000E+00 0.  1.
         12    1    6    6    0    0 -0.40953538170E+02  0.33856716943E+02 -0.21484480126E+02  0.57315377143E+02  0.00000000000E+00 0. -1.
         -5    1    3    3    0  503  0.33770811369E+02  0.73647757486E+02 -0.14939084479E+03  0.17001227718E+03  0.47000000000E+01 0.  1.
         13    1    4    4    0    0  0.18383976377E+02 -0.40326846546E+02 -0.61404351313E+02  0.75727930778E+02  0.00000000000E+00 0. -1.
        -14    1    4    4    0    0  0.31704255348E+02  0.43426502412E+01  0.14625814154E+02  0.35184270036E+02  0.00000000000E+00 0.  1.
</event>
<event>
12    1  0.1596842E-001  0.3140850E+03  0.7818608E-02  0.1078423E+00
         21   -1    0    0  501  502  0.00000000000E+00  0.00000000000E+00  0.21452284102E+03  0.21452284102E+03  0.00000000000E+00 0. -1.
         21   -1    0    0  502  503 -0.00000000000E+00 -0.00000000000E+00 -0.47877960077E+03  0.47877960077E+03  0.00000000000E+00 0. -1.
         -6    2    1    2    0  503 -0.18493041580E+03  0.18646909301E+03 -0.20143827535E+03  0.37299701961E+03  0.17198667544E+03 0.  0.
        -24    2    3    3    0    0 -0.19548872425E+03  0.11544163223E+03 -0.16572199761E+03  0.29265947822E+03  0.81505692658E+02 0.  0.
          6    2    1    2  501    0  0.18493041580E+03 -0.18646909301E+03 -0.62818484389E+02  0.32030542218E+03  0.17227716088E+03 0.  0.
         24    2    5    5    0    0  0.15961161425E+03 -0.17063578497E+03  0.49216367900E+01  0.24612625143E+03  0.77210560287E+02 0.  0.
          5    1    5    5  501    0  0.25318801550E+02 -0.15833308041E+02 -0.67740121179E+02  0.74179170747E+02  0.47000000000E+01 0. -1.
        -11    1    6    6    0    0  0.19138361648E+02 -0.25328639651E+02 -0.26799942174E+02  0.41545803322E+02  0.00000000000E+00 0.  1.
         12    1    6    6    0    0  0.14047325260E+03 -0.14530714532E+03  0.31721578964E+02  0.20458044811E+03  0.00000000000E+00 0. -1.
         -5    1    3    3    0  503  0.10558308457E+02  0.71027460775E+02 -0.35716277741E+02  0.80337541395E+02  0.47000000000E+01 0.  1.
         13    1    4    4    0    0 -0.48309117725E+02  0.27086789533E+02 -0.19713876178E+01  0.55419774374E+02  0.00000000000E+00 0. -1.
        -14    1    4    4    0    0 -0.14717960653E+03  0.88354842701E+02 -0.16375061000E+03  0.23723970384E+03  0.00000000000E+00 0.  1.
</event>
<event>
12    1  0.1596842E-001  0.1788309E+03  0.7818608E-02  0.1169738E+00
         21   -1    0    0  501  502  0.00000000000E+00  0.00000000000E+00  0.70502543726E+03  0.70502543726E+03  0.00000000000E+00 0.  1.
         21   -1    0    0  502  503 -0.00000000000E+00 -0.00000000000E+00 -0.67558626150E+02  0.67558626150E+02  0.00000000000E+00 0.  1.
         -6    2    1    2    0  503  0.47174286897E+02  0.14057652740E+02  0.91347539376E+02  0.19793046934E+03  0.16854989409E+03 0.  0.
        -24    2    3    3    0    0  0.34977544795E+02  0.20021032499E+02  0.12894214527E+03  0.15768414269E+03  0.81326143684E+02 0.  0.
          6    2    1    2  501    0 -0.47174286897E+02 -0.14057652740E+02  0.54611927174E+03  0.57465359407E+03  0.17192284104E+03 0.  0.
         24    2    5    5    0    0 -0.55265777546E+02 -0.64496099393E+02  0.27878162493E+03  0.30243857516E+03  0.80844569022E+02 0.  0.
          5    1    5    5  501    0  0.80914906489E+01  0.50438446653E+02  0.26733764680E+03  0.27221501891E+03  0.47000000000E+01 0. -1.
        -11    1    6    6    0    0  0.19921897446E+01 -0.85613370266E-01 -0.52522565972E+01  0.56180378239E+01  0.00000000000E+00 0.  1.
         12    1    6    6    0    0 -0.57257967291E+02 -0.64410486023E+02  0.28403388153E+03  0.29682053734E+03  0.00000000000E+00 0. -1.
         -5    1    3    3    0  503  0.12196742102E+02 -0.59633797593E+01 -0.37594605899E+02  0.40246326649E+02  0.47000000000E+01 0.  1.
         13    1    4    4    0    0 -0.22196423237E+02 -0.50031677671E+01  0.13513929217E+02  0.26463922141E+02  0.00000000000E+00 0. -1.
        -14    1    4    4    0    0  0.57173968032E+02  0.25024200266E+02  0.11542821606E+03  0.13122022055E+03  0.00000000000E+00 0.  1.
</event>
<event>
12    1  0.1596842E-001  0.2170589E+03  0.7818608E-02  0.1137851E+00
         21   -1    0    0  501  502  0.00000000000E+00  0.00000000000E+00  0.34443600979E+03  0.34443600979E+03  0.00000000000E+00 0. -1.
         21   -1    0    0  502  503 -0.00000000000E+00 -0.00000000000E+00 -0.13410378218E+03  0.13410378218E+03  0.00000000000E+00 0.  1.
         -6    2    1    2    0  503 -0.11607514434E+03  0.15817222789E+02  0.14289507336E+03  0.25987220888E+03  0.18273187814E+03 0.  0.
        -24    2    3    3    0    0 -0.11214148957E+03  0.73532341397E+02  0.12269234738E+03  0.19841695123E+03  0.79581125372E+02 0.  0.
          6    2    1    2  501    0  0.11607514434E+03 -0.15817222789E+02  0.67437154245E+02  0.21866758309E+03  0.17188402617E+03 0.  0.
         24    2    5    5    0    0  0.13223938877E+03  0.10656900262E+02  0.11908607519E+02  0.15488928356E+03  0.79044606171E+02 0.  0.
          5    1    5    5  501    0 -0.16164244427E+02 -0.26474123052E+02  0.55528546726E+02  0.63778299528E+02  0.47000000000E+01 0. -1.
        -11    1    6    6    0    0  0.10510551032E+02 -0.25052082655E+02  0.64006753340E+01  0.27911416537E+02  0.00000000000E+00 0.  1.
         12    1    6    6    0    0  0.12172883774E+03  0.35708982918E+02  0.55079321851E+01  0.12697786703E+03  0.00000000000E+00 0. -1.
         -5    1    3    3    0  503 -0.39336547701E+01 -0.57715118608E+02  0.20202725976E+02  0.61455257649E+02  0.47000000000E+01 0.  1.
         11    1    4    4    0    0 -0.55628476865E+02  0.32206174244E+02  0.10979599134E+03  0.12722784606E+03  0.00000000000E+00 0. -1.
        -12    1    4    4    0    0 -0.56513012705E+02  0.41326167153E+02  0.12896356043E+02  0.71189105176E+02  0.00000000000E+00 0.  1.
</event>
<event>
12    1  0.1596842E-001  0.1918993E+03  0.7818608E-02  0.1156982E+00
         21   -1    0    0  503  502  0.00000000000E+00  0.00000000000E+00  0.94846459588E+03  0.94846459588E+03  0.00000000000E+00 0. -1.
         21   -1    0    0  501  503 -0.00000000000E+00 -0.00000000000E+00 -0.38786825718E+02  0.38786825718E+02  0.00000000000E+00 0. -1.
          6    2    1    2  501    0 -0.37982390363E+02 -0.76990193564E+02  0.42411862023E+03  0.46551256795E+03  0.17162515844E+03 0.  0.
         24    2    3    3    0    0 -0.32115431217E+02 -0.64753272030E+02  0.43574110359E+03  0.44703729859E+03  0.68903191644E+02 0.  0.
         -6    2    1    2    0  502  0.37982390363E+02  0.76990193564E+02  0.48555914994E+03  0.52173885365E+03  0.17050979866E+03 0.  0.
        -24    2    5    5    0    0 -0.14906299691E+02  0.12582953835E+02  0.36844089796E+03  0.37791854559E+03  0.81811999812E+02 0.  0.
          5    1    3    3  501    0 -0.58669591462E+01 -0.12236921534E+02 -0.11622483359E+02  0.18475269354E+02  0.47000000000E+01 0. -1.
        -13    1    4    4    0    0 -0.31874865442E+02 -0.12355011660E+02  0.29290755425E+03  0.29489572512E+03  0.00000000000E+00 0.  1.
         14    1    4    4    0    0 -0.24056577498E+00 -0.52398260370E+02  0.14283354934E+03  0.15214157347E+03  0.00000000000E+00 0. -1.
         -5    1    5    5    0  502  0.52888690054E+02  0.64407239728E+02  0.11711825198E+03  0.14382030806E+03  0.47000000000E+01 0.  1.
         13    1    6    6    0    0 -0.13919649047E+02  0.39334322586E+02  0.31880757187E+03  0.32152638063E+03  0.00000000000E+00 0. -1.
        -14    1    6    6    0    0 -0.98665064375E+00 -0.26751368750E+02  0.49633326095E+02  0.56392164959E+02  0.00000000000E+00 0.  1.
</event>
<event>
12    1  0.1596842E-001  0.2692081E+03  0.7818608E-02  0.1101747E+00
         21   -1    0    0  503  502  0.00000000000E+00  0.00000000000E+00  0.15282753541E+03  0.15282753541E+03  0.00000000000E+00 0. -1.
         21   -1    0    0  501  503 -0.00000000000E+00 -0.00000000000E+00 -0.79134926685E+03  0.79134926685E+03  0.00000000000E+00 0. -1.
          6    2    1    2  501    0  0.12806653723E+03 -0.16306005499E+03 -0.61816176756E+03  0.67419988980E+03  0.17155728212E+03 0.  0.
         24    2    3    3    0    0  0.59899275999E+02 -0.98077146843E+02 -0.51815242616E+03  0.53674621680E+03  0.80046951952E+02 0.  0.
         -6    2    1    2    0  502 -0.12806653723E+03  0.16306005499E+03 -0.20359963878E+02  0.26997691246E+03  0.17170726729E+03 0.  0.
        -24    2    5    5    0    0 -0.76106306293E+02  0.18136089125E+02 -0.18585062718E+02  0.11593775590E+03  0.83516891103E+02 0.  0.
          5    1    3    3  501    0  0.68167261232E+02 -0.64982908142E+02 -0.10000934140E+03  0.13745367300E+03  0.47000000000E+01 0. -1.
        -11    1    4    4    0    0  0.10295444631E+02 -0.70617983847E+02 -0.39193819116E+03  0.39838228062E+03  0.00000000000E+00 0.  1.
         12    1    4    4    0    0  0.49603831368E+02 -0.27459162997E+02 -0.12621423500E+03  0.13836393618E+03  0.00000000000E+00 0. -1.
         -5    1    5    5    0  502 -0.51960230939E+02  0.14492396586E+03 -0.17749011591E+01  0.15403915656E+03  0.47000000000E+01 0.  1.
         11    1    6    6    0    0 -0.37798137516E+02 -0.53343405732E+01  0.30892167271E+02  0.49106826284E+02  0.00000000000E+00 0. -1.
        -12    1    6    6    0    0 -0.38308168777E+02  0.23470429699E+02 -0.49477229989E+02  0.66830929611E+02  0.00000000000E+00 0.  1.
</event>
<event>
12    1  0.1596842E-001  0.2396140E+03  0.7818608E-02  0.1120331E+00
         21   -1    0    0  501  502  0.00000000000E+00  0.00000000000E+00  0.38588789022E+03  0.38588789022E+03  0.00000000000E+00 0.  1.
         21   -1    0    0  502  503 -0.00000000000E+00 -0.00000000000E+00 -0.23850415711E+03  0.23850415711E+03  0.00000000000E+00 0.  1.
         -6    2    1    2    0  503  0.10918573561E+03 -0.12872450239E+03 -0.11873132515E+03  0.26741730096E+03  0.17006870053E+03 0.  0.
        -24    2    3    3    0    0 -0.64940573916E+01 -0.69371952858E+02 -0.74038213599E+02  0.12985239313E+03  0.80779615641E+02 0.  0.
          6    2    1    2  501    0 -0.10918573561E+03  0.12872450239E+03  0.26611505826E+03  0.35697474638E+03  0.16769681852E+03 0.  0.
         24    2    5    5    0    0 -0.56933862904E+02  0.61618427359E+02  0.24205801577E+03  0.26846308160E+03  0.80262368806E+02 0.  0.
          5    1    5    5  501    0 -0.52251872710E+02  0.67106075036E+02  0.24057042485E+02  0.88511664777E+02  0.47000000000E+01 0. -1.
        -11    1    6    6    0    0 -0.75390701284E+02  0.39651157443E+02  0.20166328015E+03  0.21891562458E+03  0.00000000000E+00 0.  1.
         12    1    6    6    0    0  0.18456838380E+02  0.21967269915E+02  0.40394735627E+02  0.49547457018E+02  0.00000000000E+00 0. -1.
         -5    1    3    3    0  503  0.11567979301E+03 -0.59352549537E+02 -0.44693111553E+02  0.13756490783E+03  0.47000000000E+01 0.  1.
         11    1    4    4    0    0  0.10499658901E+02  0.62384871059E+01 -0.45753360846E+02  0.47355375483E+02  0.00000000000E+00 0. -1.
        -12    1    4    4    0    0 -0.16993716293E+02 -0.75610439964E+02 -0.28284852753E+02  0.82497017644E+02  0.00000000000E+00 0.  1.
</event>
<event>
12    1  0.1596842E-001  0.1857156E+03  0.7818608E-02  0.1165170E+00
         21   -1    0    0  503  502  0.00000000000E+00  0.00000000000E+00  0.79107501053E+02  0.79107501053E+02  0.00000000000E+00 0. -1.
         21   -1    0    0  501  503 -0.00000000000E+00 -0.00000000000E+00 -0.94597514130E+03  0.94597514130E+03  0.00000000000E+00 0. -1.
          6    2    1    2  501    0 -0.39017835980E+00 -0.28032854064E+02 -0.82547232493E+03  0.84610570347E+03  0.18358733362E+03 0.  0.
         24    2    3    3    0    0 -0.45239681959E+00  0.46983997559E+02 -0.58270626279E+03  0.59196994678E+03  0.93135001516E+02 0.  0.
         -6    2    1    2    0  502  0.39017835980E+00  0.28032854064E+02 -0.41395315314E+02  0.17897693889E+03  0.17185220213E+03 0.  0.
        -24    2    5    5    0    0 -0.66733589184E+02  0.23603175047E+02 -0.18672501428E+02  0.10781769145E+03  0.79154977616E+02 0.  0.
          5    1    3    3  501    0  0.62218459793E-01 -0.75016851622E+02 -0.24276606214E+03  0.25413575669E+03  0.47000000000E+01 0. -1.
        -13    1    4    4    0    0 -0.21774543407E+02  0.47247670478E+02 -0.15049938909E+03  0.15923736754E+03  0.00000000000E+00 0.  1.
         14    1    4    4    0    0  0.21322146587E+02 -0.26367291886E+00 -0.43220687370E+03  0.43273257924E+03  0.00000000000E+00 0. -1.
         -5    1    5    5    0  502  0.67123767543E+02  0.44296790164E+01 -0.22722813886E+02  0.71159247441E+02  0.47000000000E+01 0.  1.
         11    1    6    6    0    0 -0.39433983264E+02 -0.11763633098E+02  0.22639181015E+02  0.46967591132E+02  0.00000000000E+00 0. -1.
        -12    1    6    6    0    0 -0.27299605920E+02  0.35366808146E+02 -0.41311682443E+02  0.60850100313E+02  0.00000000000E+00 0.  1.
</event>
<event>
12    1  0.1596842E-001  0.4035730E+03  0.7818608E-02  0.1042556E+00
         21   -1    0    0  503  502  0.00000000000E+00  0.00000000000E+00  0.63753545493E+03  0.63753545493E+03  0.00000000000E+00 0. -1.
         21   -1    0    0  501  503 -0.00000000000E+00 -0.00000000000E+00 -0.34415552043E+03  0.34415552043E+03  0.00000000000E+00 0.  1.
          6    2    1    2  501    0  0.33458786346E+03  0.14644572212E+03 -0.10254085969E+03  0.41639618066E+03  0.17168507058E+03 0.  0.
         24    2    3    3    0    0  0.26681353573E+03  0.49181770279E+02 -0.67997880121E+02  0.29282861508E+03  0.86698193351E+02 0.  0.
         -6    2    1    2    0  502 -0.33458786346E+03 -0.14644572212E+03  0.39592079419E+03  0.56529479471E+03  0.17149210404E+03 0.  0.
        -24    2    5    5    0    0 -0.10143513928E+03 -0.47710907618E+02  0.78815500973E+02  0.15947881009E+03  0.81585473502E+02 0.  0.
          5    1    3    3  501    0  0.67774327729E+02  0.97263951838E+02 -0.34542979565E+02  0.12356756558E+03  0.47000000000E+01 0. -1.
        -13    1    4    4    0    0  0.18786764585E+02  0.29565226768E+02 -0.16645855166E+02  0.38783110391E+02  0.00000000000E+00 0.  1.
         14    1    4    4    0    0  0.24802677115E+03  0.19616543511E+02 -0.51352024955E+02  0.25404550469E+03  0.00000000000E+00 0. -1.
         -5    1    5    5    0  502 -0.23315272418E+03 -0.98734814499E+02  0.31710529322E+03  0.40581598462E+03  0.47000000000E+01 0.  1.
         11    1    6    6    0    0 -0.66317360887E+02 -0.40515608175E+02  0.92762409252E+02  0.12101393073E+03  0.00000000000E+00 0. -1.
        -12    1    6    6    0    0 -0.35117778391E+02 -0.71952994429E+01 -0.13946908279E+02  0.38464879355E+02  0.00000000000E+00 0.  1.
</event>
<event>
12    1  0.1596842E-001  0.2621823E+03  0.7818608E-02  0.1105850E+00
         21   -1    0    0  501  502  0.00000000000E+00  0.00000000000E+00  0.86646968790E+02  0.86646968790E+02  0.00000000000E+00 0.  1.
         21   -1    0    0  502  503 -0.00000000000E+00 -0.00000000000E+00 -0.95493197512E+03  0.95493197512E+03  0.00000000000E+00 0.  1.
         -6    2    1    2    0  503  0.14845352137E+02  0.19722124574E+03 -0.64857111596E+03  0.69955991115E+03  0.17211325507E+03 0.  0.
        -24    2    3    3    0    0 -0.27933881248E+02  0.77204144018E+02 -0.18063212538E+03  0.21456181175E+03  0.81657974293E+02 0.  0.
          6    2    1    2  501    0 -0.14845352137E+02 -0.19722124574E+03 -0.21971389037E+03  0.34201903276E+03  0.17200645599E+03 0.  0.
         24    2    5    5    0    0 -0.10571638815E+02 -0.21189927424E+03 -0.22588275315E+03  0.32487686212E+03  0.97513565211E+02 0.  0.
          5    1    5    5  501    0 -0.42737133220E+01  0.14678028506E+02  0.61688627777E+01  0.17142170643E+02  0.47000000000E+01 0. -1.
        -13    1    6    6    0    0 -0.50478279914E+02 -0.75463189002E+02 -0.77215997509E+02  0.11918498189E+03  0.00000000000E+00 0.  1.
         14    1    6    6    0    0  0.39906641100E+02 -0.13643608524E+03 -0.14866675564E+03  0.20569188023E+03  0.00000000000E+00 0. -1.
         -5    1    3    3    0  503  0.42779233384E+02  0.12001710172E+03 -0.46793899058E+03  0.48499809940E+03  0.47000000000E+01 0.  1.
         13    1    4    4    0    0  0.26667224879E+02  0.43361718561E+02 -0.68680419632E+02  0.85489061055E+02  0.00000000000E+00 0. -1.
        -14    1    4    4    0    0 -0.54601106127E+02  0.33842425457E+02 -0.11195170575E+03  0.12907275069E+03  0.00000000000E+00 0.  1.
</event>
<event>
12    1  0.1596842E-001  0.2000320E+03  0.7818608E-02  0.1150304E+00
         21   -1    0    0  501  502  0.00000000000E+00  0.00000000000E+00  0.25823322543E+03  0.25823322543E+03  0.00000000000E+00 0.  1.
         21   -1    0    0  502  503 -0.00000000000E+00 -0.00000000000E+00 -0.30392418354E+03  0.30392418354E+03  0.00000000000E+00 0.  1.
         -6    2    1    2    0  503  0.98133358508E+02 -0.28777883643E+01 -0.22096716180E+03  0.29619774850E+03  0.17107946079E+03 0.  0.
        -24    2    3    3    0    0  0.55829028447E+02 -0.25713720922E+02 -0.22624608803E+03  0.24760666681E+03  0.79647305272E+02 0.  0.
          6    2    1    2  501    0 -0.98133358508E+02  0.28777883643E+01  0.17527620368E+03  0.26595966048E+03  0.17428240217E+03 0.  0.
         24    2    5    5    0    0 -0.99121299334E+02  0.12947940243E+02  0.44884651493E+02  0.13509167024E+03  0.79009153209E+02 0.  0.
          5    1    5    5  501    0  0.98794082578E+00 -0.10070151879E+02  0.13039155219E+03  0.13086799024E+03  0.47000000000E+01 0. -1.
        -11    1    6    6    0    0 -0.85565601329E+02  0.29997420436E+02  0.59868945294E+02  0.10865361464E+03  0.00000000000E+00 0.  1.
         12    1    6    6    0    0 -0.13555698005E+02 -0.17049480193E+02 -0.14984293802E+02  0.26438055602E+02  0.00000000000E+00 0. -1.
         -5    1    3    3    0  503  0.42304330061E+02  0.22835932558E+02  0.52789262350E+01  0.48591081691E+02  0.47000000000E+01 0.  1.
         11    1    4    4    0    0 -0.14191456577E+02 -0.25615632833E+02 -0.86067030196E+02  0.90912550135E+02  0.00000000000E+00 0. -1.
        -12    1    4    4    0    0  0.70020485024E+02 -0.98088088829E-01 -0.14017905783E+03  0.15669411667E+03  0.00000000000E+00 0.  1.
</event>
<event>
12    1  0.1596842E-001  0.1753377E+03  0.7818608E-02  0.1176782E+00
         21   -1    0    0  503  502  0.00000000000E+00  0.00000000000E+00  0.41128004388E+02  0.41128004388E+02  0.00000000000E+00 0.  1.
         21   -1    0    0  501  503 -0.00000000000E+00 -0.00000000000E+00 -0.14621601010E+04  0.14621601010E+04  0.00000000000E+00 0.  1.
          6    2    1    2  501    0 -0.22155461622E+02 -0.15372605781E+02 -0.12769316027E+04  0.12889133540E+04  0.17325165111E+03 0.  0.
         24    2    3    3    0    0 -0.67263063653E+01  0.52071848183E+02 -0.94183712289E+03  0.94671865268E+03  0.80388560772E+02 0.  0.
         -6    2    1    2    0  502  0.22155461622E+02  0.15372605781E+02 -0.14410049384E+03  0.21437475133E+03  0.15641099768E+03 0.  0.
        -24    2    5    5    0    0  0.27789298990E+02 -0.31284079365E+02 -0.37879451743E+02  0.98126800056E+02  0.80268781384E+02 0.  0.
          5    1    3    3  501    0 -0.15429155257E+02 -0.67444453963E+02 -0.33509447985E+03  0.34219470134E+03  0.47000000000E+01 0.  1.
        -13    1    4    4    0    0 -0.24322362413E+02  0.30950954856E+02 -0.17431530142E+03  0.17870468161E+03  0.00000000000E+00 0.  1.
         14    1    4    4    0    0  0.17596056048E+02  0.21120893327E+02 -0.76752182147E+03  0.76801397107E+03  0.00000000000E+00 0. -1.
         -5    1    5    5    0  502 -0.56338373678E+01  0.46656685146E+02 -0.10622104209E+03  0.11624795128E+03  0.47000000000E+01 0.  1.
         11    1    6    6    0    0  0.32162899772E+02  0.13947975514E+01 -0.52876670447E+02  0.61905895192E+02  0.00000000000E+00 0. -1.
        -12    1    6    6    0    0 -0.43736007824E+01 -0.32678876916E+02  0.14997218704E+02  0.36220904864E+02  0.00000000000E+00 0.  1.
</event>
<event>
12    1  0.1596842E-001  0.1844646E+03  0.7818608E-02  0.1164179E+00
         21   -1    0    0  501  502  0.00000000000E+00  0.00000000000E+00  0.93752435114E+02  0.93752435114E+02  0.00000000000E+00 0. -1.
         21   -1    0    0  502  503 -0.00000000000E+00 -0.00000000000E+00 -0.35851184618E+03  0.35851184618E+03  0.00000000000E+00 0. -1.
         -6    2    1    2    0  503 -0.74928527954E+01  0.65808530604E+02 -0.14193913917E+03  0.23065198928E+03  0.16931247853E+03 0.  0.
        -24    2    3    3    0    0  0.35885139607E+02  0.36149382702E+02 -0.14992673992E+03  0.17729276285E+03  0.79750707234E+02 0.  0.
          6    2    1    2  501    0  0.74928527954E+01 -0.65808530604E+02 -0.12282027189E+03  0.22161229201E+03  0.17216353632E+03 0.  0.
         24    2    5    5    0    0  0.47407389356E+02 -0.80652249628E+02 -0.41128123586E+02  0.12936694894E+03  0.79322373848E+02 0.  0.
          5    1    5    5  501    0 -0.39914536560E+02  0.14843719024E+02 -0.81692148308E+02  0.92245343072E+02  0.47000000000E+01 0. -1.
        -11    1    6    6    0    0  0.27403739617E+02  0.51064919414E+01 -0.29424186909E+02  0.40531765076E+02  0.00000000000E+00 0.  1.
         12    1    6    6    0    0  0.20003649739E+02 -0.85758741570E+02 -0.11703936677E+02  0.88835183864E+02  0.00000000000E+00 0. -1.
         -5    1    3    3    0  503 -0.43377992403E+02  0.29659147902E+02  0.79876007450E+01  0.53359226426E+02  0.47000000000E+01 0.  1.
         11    1    4    4    0    0  0.17887090784E+02  0.49356977505E+02 -0.42425508864E+02  0.67498022545E+02  0.00000000000E+00 0. -1.
        -12    1    4    4    0    0  0.17998048823E+02 -0.13207594803E+02 -0.10750123105E+03  0.10979474031E+03  0.00000000000E+00 0.  1.
</event>
<event>
12    1  0.1596842E-001  0.2226338E+03  0.7818608E-02  0.1132248E+00
         21   -1    0    0  501  502  0.00000000000E+00  0.00000000000E+00  0.16482158950E+04  0.16482158950E+04  0.00000000000E+00 0.  1.
         21   -1    0    0  502  503 -0.00000000000E+00 -0.00000000000E+00 -0.31907166882E+02  0.31907166882E+02  0.00000000000E+00 0.  1.
         -6    2    1    2    0  503  0.67597889529E+02 -0.12211428829E+03  0.59740097735E+03  0.63753725499E+03  0.17344869470E+03 0.  0.
        -24    2    3    3    0    0  0.19102131250E+02 -0.38213960141E+01  0.33923923474E+03  0.34941467296E+03  0.81411674854E+02 0.  0.
          6    2    1    2  501    0 -0.67597889529E+02  0.12211428829E+03  0.10189077507E+04  0.10425858068E+04  0.17126233116E+03 0.  0.
         24    2    5    5    0    0 -0.91236497345E+02  0.43030646217E+02  0.43959107779E+03  0.45739959395E+03  0.76146818127E+02 0.  0.
          5    1    5    5  501    0  0.23638607816E+02  0.79083642072E+02  0.57931667293E+03  0.58518621289E+03  0.47000000000E+01 0. -1.
        -13    1    6    6    0    0 -0.22677072195E+02  0.36194220951E+02  0.28456165579E+03  0.28774920882E+03  0.00000000000E+00 0.  1.
         14    1    6    6    0    0 -0.68559425150E+02  0.68364252666E+01  0.15502942201E+03  0.16965038513E+03  0.00000000000E+00 0. -1.
         -5    1    3    3    0  503  0.48495758279E+02 -0.11829289228E+03  0.25816174260E+03  0.28812258203E+03  0.47000000000E+01 0.  1.
         11    1    4    4    0    0  0.32685233524E+01 -0.13380647387E+02  0.32687943917E+03  0.32716951680E+03  0.00000000000E+00 0. -1.
        -12    1    4    4    0    0  0.15833607898E+02  0.95592513732E+01  0.12359795570E+02  0.22245156156E+02  0.00000000000E+00 0.  1.
</event>
<event>
12    1  0.1596842E-001  0.1810462E+03  0.7818608E-02  0.1167140E+00
         21   -1    0    0  501  502  0.00000000000E+00  0.00000000000E+00  0.29331743158E+03  0.29331743158E+03  0.00000000000E+00 0.  1.
         21   -1    0    0  502  503 -0.00000000000E+00 -0.00000000000E+00 -0.14792466776E+03  0.14792466776E+03  0.00000000000E+00 0.  1.
         -6    2    1    2    0  503 -0.54085733726E+02 -0.33930141026E+01 -0.37946447949E+02  0.18357761127E+03  0.17124259783E+03 0.  0.
        -24    2    3    3    0    0  0.31270789217E+02 -0.35015674007E+02 -0.23006134648E+02  0.91214027593E+02  0.74744611270E+02 0.  0.
          6    2    1    2  501    0  0.54085733726E+02  0.33930141026E+01  0.18333921177E+03  0.25766448807E+03  0.17274531167E+03 0.  0.
         24    2    5    5    0    0  0.89738646204E+02  0.21069529038E+02  0.72675283746E+02  0.13996918522E+03  0.76241237313E+02 0.  0.
          5    1    5    5  501    0 -0.35652912477E+02 -0.17676514936E+02  0.11066392802E+03  0.11769530285E+03  0.47000000000E+01 0. -1.
        -13    1    6    6    0    0  0.77620742937E+01 -0.24379768436E+02  0.19793425599E+02  0.32348146830E+02  0.00000000000E+00 0.  1.
         14    1    6    6    0    0  0.81976571910E+02  0.45449297475E+02  0.52881858147E+02  0.10762103839E+03  0.00000000000E+00 0. -1.
         -5    1    3    3    0  503 -0.85356522943E+02  0.31622659904E+02 -0.14940313301E+02  0.92363583679E+02  0.47000000000E+01 0.  1.
         11    1    4    4    0    0  0.44548433678E+02  0.54748707725E+01 -0.17803505626E+02  0.48285628978E+02  0.00000000000E+00 0. -1.
        -12    1    4    4    0    0 -0.13277644461E+02 -0.40490544779E+02 -0.52026290214E+01  0.42928398616E+02  0.00000000000E+00 0.  1.
</event>
<event>
12    1  0.1596842E-001  0.1890818E+03  0.7818608E-02  0.1159385E+00
         21   -1    0    0  501  502  0.00000000000E+00  0.00000000000E+00  0.87894848766E+03  0.87894848766E+03  0.00000000000E+00 0.  1.
         21   -1    0    0  502  503 -0.00000000000E+00 -0.00000000000E+00 -0.64819800367E+02  0.64819800367E+02  0.00000000000E+00 0.  1.
         -6    2    1    2    0  503 -0.74329514523E+02  0.89969582158E+01  0.11827050455E+03  0.22267844873E+03  0.17318186191E+03 0.  0.
        -24    2    3    3    0    0 -0.80862142771E+02 -0.45390450324E+02  0.46701160386E+02  0.13242920240E+03  0.82204112746E+02 0.  0.
          6    2    1    2  501    0  0.74329514523E+02 -0.89969582158E+01  0.69585818275E+03  0.72108983930E+03  0.17362639160E+03 0.  0.
         24    2    5    5    0    0 -0.10425257617E+02 -0.37979914847E+02  0.44438469288E+03  0.45409847375E+03  0.84714276617E+02 0.  0.
          5    1    5    5  501    0  0.84754772141E+02  0.28982956632E+02  0.25147348986E+03  0.26699136555E+03  0.47000000000E+01 0. -1.
        -13    1    6    6    0    0 -0.19620621302E+02  0.17424371958E+02  0.58081803158E+02  0.63734397122E+02  0.00000000000E+00 0.  1.
         14    1    6    6    0    0  0.91953636845E+01 -0.55404286806E+02  0.38630288972E+03  0.39036407663E+03  0.00000000000E+00 0. -1.
         -5    1    3    3    0  503  0.65326282478E+01  0.54387408539E+02  0.71569344161E+02  0.90249246330E+02  0.47000000000E+01 0.  1.
         11    1    4    4    0    0 -0.60296675476E+02 -0.32466408207E+01 -0.73971838168E+01  0.60835417962E+02  0.00000000000E+00 0. -1.
        -12    1    4    4    0    0 -0.20565467295E+02 -0.42143809503E+02  0.54098344203E+02  0.71593784437E+02  0.00000000000E+00 0.  1.
</event>
<event>
12    1  0.1596842E-001  0.2627503E+03  0.7818608E-02  0.1105517E+00
         21   -1    0    0  503  502  0.00000000000E+00  0.00000000000E+00  0.62177031827E+03  0.62177031827E+03  0.00000000000E+00 0. -1.
         21   -1    0    0  501  503 -0.00000000000E+00 -0.00000000000E+00 -0.17316377002E+03  0.17316377002E+03  0.00000000000E+00 0.  1.
          6    2    1    2  501    0 -0.19921891009E+03 -0.10925446719E+02 -0.13831597089E+02  0.26311407373E+03  0.17096831049E+03 0.  0.
         24    2    3    3    0    0 -0.13038741705E+03  0.38338285549E+02 -0.57352004668E+02  0.16782081255E+03  0.80024183971E+02 0.  0.
         -6    2    1    2    0  502  0.19921891009E+03  0.10925446719E+02  0.46243814534E+03  0.53182001455E+03  0.17080968969E+03 0.  0.
        -24    2    5    5    0    0  0.15259812494E+03  0.39757603266E+02  0.43625609830E+03  0.47089070759E+03  0.80943316224E+02 0.  0.
          5    1    3    3  501    0 -0.68831493038E+02 -0.49263732268E+02  0.43520407579E+02  0.95293261182E+02  0.47000000000E+01 0. -1.
        -11    1    4    4    0    0 -0.11347229058E+03 -0.64053952708E+00 -0.30301590699E+02  0.11745023380E+03  0.00000000000E+00 0.  1.
         12    1    4    4    0    0 -0.16915126477E+02  0.38978825076E+02 -0.27050413969E+02  0.50370578753E+02  0.00000000000E+00 0. -1.
         -5    1    5    5    0  502  0.46620785155E+02 -0.28832156547E+02  0.26182047037E+02  0.60929306960E+02  0.47000000000E+01 0.  1.
         13    1    6    6    0    0  0.15962884580E+03  0.38785424495E+02  0.37732212629E+03  0.41153087922E+03  0.00000000000E+00 0. -1.
        -14    1    6    6    0    0 -0.70307208615E+01  0.97217877098E+00  0.58933972015E+02  0.59359828376E+02  0.00000000000E+00 0.  1.
</event>
<event>
12    1  0.1596842E-001  0.2149607E+03  0.7818608E-02  0.1138066E+00
         21   -1    0    0  501  502  0.00000000000E+00  0.00000000000E+00  0.61418512800E+03  0.61418512800E+03  0.00000000000E+00 0.  1.
         21   -1    0    0  502  503 -0.00000000000E+00 -0.00000000000E+00 -0.19444732638E+03  0.19444732638E+03  0.00000000000E+00 0. -1.
         -6    2    1    2    0  503 -0.82736611712E+02 -0.95698184620E+02 -0.10723359662E+03  0.24022313705E+03  0.17379476941E+03 0.  0.
        -24    2    3    3    0    0 -0.82424106140E+02 -0.10747494064E+02 -0.10338963930E+03  0.15505516482E+03  0.80271070265E+02 0.  0.
          6    2    1    2  501    0  0.82736611712E+02  0.95698184620E+02  0.52697139823E+03  0.56840931733E+03  0.17142580907E+03 0.  0.
         24    2    5    5    0    0  0.50576385556E+02 -0.18987780445E+00  0.14957844612E+03  0.17767113009E+03  0.81457425043E+02 0.  0.
          5    1    5    5  501    0  0.32160226156E+02  0.95888062425E+02  0.37739295211E+03  0.39073818724E+03  0.47000000000E+01 0. -1.
        -11    1    6    6    0    0  0.66041330188E+01  0.25799639161E+02  0.10965156062E+03  0.11283926932E+03  0.00000000000E+00 0.  1.
         12    1    6    6    0    0  0.43972252537E+02 -0.25989516966E+02  0.39926885493E+02  0.64831860766E+02  0.00000000000E+00 0. -1.
         -5    1    3    3    0  503 -0.31250557151E+00 -0.84950690556E+02 -0.38439573147E+01  0.85167972229E+02  0.47000000000E+01 0.  1.
         13    1    4    4    0    0  0.15589317684E+01  0.97999573470E+01 -0.55174960169E+02  0.56060196770E+02  0.00000000000E+00 0. -1.
        -14    1    4    4    0    0 -0.83983037909E+02 -0.20547451411E+02 -0.48214679134E+02  0.98994968053E+02  0.00000000000E+00 0.  1.
</event>
<event>
12    1  0.1596842E-001  0.1997632E+03  0.7818608E-02  0.1149942E+00
         21   -1    0    0  503  502  0.00000000000E+00  0.00000000000E+00  0.31686223537E+03  0.31686223537E+03  0.00000000000E+00 0.  1.
         21   -1    0    0  501  503 -0.00000000000E+00 -0.00000000000E+00 -0.17597954013E+03  0.17597954013E+03  0.00000000000E+00 0. -1.
          6    2    1    2  501    0  0.65462944193E+02 -0.77713919357E+02 -0.60973502032E+02  0.20886146793E+03  0.17198980933E+03 0.  0.
         24    2    3    3    0    0 -0.28638031836E+02 -0.52660337363E+02 -0.14476921548E+02  0.10084897950E+03  0.79797790759E+02 0.  0.
         -6    2    1    2    0  502 -0.65462944193E+02  0.77713919357E+02  0.20185619727E+03  0.28398030757E+03  0.17197104520E+03 0.  0.
        -24    2    5    5    0    0 -0.10255301104E+02 -0.13362419446E+02  0.42523606564E+02  0.92272853867E+02  0.80139235030E+02 0.  0.
          5    1    3    3  501    0  0.94100976029E+02 -0.25053581994E+02 -0.46496580484E+02  0.10801248843E+03  0.47000000000E+01 0. -1.
        -13    1    4    4    0    0  0.28342600903E+01 -0.22511545409E+02  0.30635535673E+02  0.38122680296E+02  0.00000000000E+00 0.  1.
         14    1    4    4    0    0 -0.31472291926E+02 -0.30148791954E+02 -0.45112457221E+02  0.62726299204E+02  0.00000000000E+00 0. -1.
         -5    1    5    5    0  502 -0.55207643088E+02  0.91076338803E+02  0.15933259070E+03  0.19170745370E+03  0.47000000000E+01 0.  1.
         11    1    6    6    0    0 -0.20073620530E+02 -0.42174084145E+02  0.40407761068E+02  0.61760754279E+02  0.00000000000E+00 0. -1.
        -12    1    6    6    0    0  0.98183194256E+01  0.28811664699E+02  0.21158454962E+01  0.30512099587E+02  0.00000000000E+00 0.  1.
</event>
<event>
12    1  0.1596842E-001  0.1841794E+03  0.7818608E-02  0.1165714E+00
         21   -1    0    0  501  502  0.00000000000E+00  0.00000000000E+00  0.18567980945E+03  0.18567980945E+03  0.00000000000E+00 0.  1.
         21   -1    0    0  502  503 -0.00000000000E+00 -0.00000000000E+00 -0.23512542799E+03  0.23512542799E+03  0.00000000000E+00 0.  1.
         -6    2    1    2    0  503 -0.29483068050E+02  0.19981396979E+02 -0.13154446016E+03  0.22633160469E+03  0.18070291296E+03 0.  0.
        -24    2    3    3    0    0 -0.56795602403E+02  0.72583445747E+02 -0.67686411506E+02  0.13907972536E+03  0.79168318507E+02 0.  0.
          6    2    1    2  501    0  0.29483068050E+02 -0.19981396979E+02  0.82098841627E+02  0.19447363275E+03  0.17265939451E+03 0.  0.
         24    2    5    5    0    0 -0.30395529535E+02 -0.56684959067E+02  0.68189843076E+02  0.12272303582E+03  0.79208686534E+02 0.  0.
          5    1    5    5  501    0  0.59878597586E+02  0.36703562087E+02  0.13908998551E+02  0.71750596927E+02  0.47000000000E+01 0. -1.
        -13    1    6    6    0    0  0.11799751261E+02  0.62145622586E+01  0.39566113353E+02  0.41753230291E+02  0.00000000000E+00 0.  1.
         14    1    6    6    0    0 -0.42195280796E+02 -0.62899521325E+02  0.28623729723E+02  0.80969805531E+02  0.00000000000E+00 0. -1.
         -5    1    3    3    0  503  0.27312534353E+02 -0.52602048768E+02 -0.63858048659E+02  0.87251879326E+02  0.47000000000E+01 0.  1.
         13    1    4    4    0    0 -0.39319452099E+02  0.16004054390E+01  0.14834217224E+00  0.39352288578E+02  0.00000000000E+00 0. -1.
        -14    1    4    4    0    0 -0.17476150304E+02  0.70983040308E+02 -0.67834753678E+02  0.99727436784E+02  0.00000000000E+00 0.  1.
</event>
<event>
12    1  0.1596842E-001  0.1772261E+03  0.7818608E-02  0.1170981E+00
         21   -1    0    0  503  502  0.00000000000E+00  0.00000000000E+00  0.10099744057E+03  0.10099744057E+03  0.00000000000E+00 0.  1.
         21   -1    0    0  501  503 -0.00000000000E+00 -0.00000000000E+00 -0.10596605764E+04  0.10596605764E+04  0.00000000000E+00 0.  1.
          6    2    1    2  501    0 -0.39744148153E+02 -0.14019787204E+02 -0.96893232512E+03  0.98500707274E+03  0.17214218234E+03 0.  0.
         24    2    3    3    0    0 -0.32846020965E+02  0.56529758034E+02 -0.66584001297E+03  0.67370037159E+03  0.79087250441E+02 0.  0.
         -6    2    1    2    0  502  0.39744148153E+02  0.14019787204E+02  0.10269189256E+02  0.17565094427E+03  0.17021059377E+03 0.  0.
        -24    2    5    5    0    0  0.35971563361E+02  0.24471595108E+02  0.70004530146E+02  0.11470938509E+03  0.79779674409E+02 0.  0.
          5    1    3    3  501    0 -0.68981271883E+01 -0.70549545237E+02 -0.30309231215E+03  0.31130670115E+03  0.47000000000E+01 0. -1.
        -13    1    4    4    0    0 -0.33337285664E+02  0.16914460817E+02 -0.55007347300E+03  0.55134227055E+03  0.00000000000E+00 0.  1.
         14    1    4    4    0    0  0.49126469912E+00  0.39615297217E+02 -0.11576653997E+03  0.12235810104E+03  0.00000000000E+00 0. -1.
         -5    1    5    5    0  502  0.37725847921E+01 -0.10451807905E+02 -0.59735340890E+02  0.60941559184E+02  0.47000000000E+01 0.  1.
         13    1    6    6    0    0 -0.70076364213E+01  0.11346713669E+01 -0.15025434805E+02  0.16618006451E+02  0.00000000000E+00 0. -1.
        -14    1    6    6    0    0  0.42979199782E+02  0.23336923741E+02  0.85029964951E+02  0.98091378638E+02  0.00000000000E+00 0.  1.
</event>
<event>
12    1  0.1596842E-001  0.3471713E+03  0.7818608E-02  0.1063853E+00
         21   -1    0    0  501  502  0.00000000000E+00  0.00000000000E+00  0.19553099557E+04  0.19553099557E+04  0.00000000000E+00 0. -1.
         21   -1    0    0  502  503 -0.00000000000E+00 -0.00000000000E+00 -0.21910022956E+03  0.21910022956E+03  0.00000000000E+00 0.  1.
         -6    2    1    2    0  503 -0.24271948193E+03 -0.17817505094E+03 -0.53676689197E+02  0.35129635234E+03  0.17282605277E+03 0.  0.
        -24    2    3    3    0    0 -0.92150238762E+02 -0.45373067882E+02 -0.60886055070E+02  0.15034479437E+03  0.91356793401E+02 0.  0.
          6    2    1    2  501    0  0.24271948193E+03  0.17817505094E+03  0.17898864153E+04  0.18231138329E+04  0.17143970459E+03 0.  0.
         24    2    5    5    0    0  0.25734245324E+03  0.18232119706E+03  0.17532353616E+04  0.17831587136E+04  0.79715793289E+02 0.  0.
          5    1    5    5  501    0 -0.14622971306E+02 -0.41461461269E+01  0.36651053698E+02  0.39955119255E+02  0.47000000000E+01 0. -1.
        -11    1    6    6    0    0  0.10857272469E+03  0.40173859507E+02  0.50682329810E+03  0.51987674600E+03  0.00000000000E+00 0.  1.
         12    1    6    6    0    0  0.14876972855E+03  0.14214733756E+03  0.12464120635E+04  0.12632819676E+04  0.00000000000E+00 0. -1.
         -5    1    3    3    0  503 -0.15056924317E+03 -0.13280198305E+03  0.72093658728E+01  0.20095155796E+03  0.47000000000E+01 0.  1.
         13    1    4    4    0    0 -0.15753467186E+02 -0.22395106627E+02  0.22132785479E+02  0.35207566265E+02  0.00000000000E+00 0. -1.
        -14    1    4    4    0    0 -0.76396771575E+02 -0.22977961255E+02 -0.83018840549E+02  0.11513722811E+03  0.00000000000E+00 0.  1.
</event>
<event>
12    1  0.1596842E-001  0.1912222E+03  0.7818608E-02  0.1157403E+00
         21   -1    0    0  501  502  0.00000000000E+00  0.00000000000E+00  0.15820128489E+02  0.15820128489E+02  0.00000000000E+00 0.  1.
         21   -1    0    0  502  503 -0.00000000000E+00 -0.00000000000E+00 -0.30896263000E+04  0.30896263000E+04  0.00000000000E+00 0.  1.
         -6    2    1    2    0  503  0.67919391651E+02 -0.48146791623E+02 -0.75601937707E+03  0.77978489480E+03  0.17195355869E+03 0.  0.
        -24    2    3    3    0    0  0.98215969196E+02 -0.76796151511E+02 -0.54854251436E+03  0.56810729326E+03  0.79391316300E+02 0.  0.
          6    2    1    2  501    0 -0.67919391651E+02  0.48146791623E+02 -0.23177867944E+04  0.23256615337E+04  0.17214757477E+03 0.  0.
         24    2    5    5    0    0 -0.43868392857E+02  0.69061259495E+02 -0.83767539430E+03  0.84519954082E+03  0.77254800052E+02 0.  0.
          5    1    5    5  501    0 -0.24050998794E+02 -0.20914467871E+02 -0.14801114001E+04  0.14804619928E+04  0.47000000000E+01 0. -1.
        -11    1    6    6    0    0  0.87451619980E+01  0.17926930327E+02 -0.46180153804E+03  0.46223209887E+03  0.00000000000E+00 0.  1.
         12    1    6    6    0    0 -0.52613554855E+02  0.51134329168E+02 -0.37587385626E+03  0.38296744195E+03  0.00000000000E+00 0. -1.
         -5    1    3    3    0  503 -0.30296577545E+02  0.28649359887E+02 -0.20747686271E+03  0.21167760154E+03  0.47000000000E+01 0.  1.
         13    1    4    4    0    0  0.39185415518E+02  0.96467952036E+01 -0.10782444428E+03  0.11512892005E+03  0.00000000000E+00 0. -1.
        -14    1    4    4    0    0  0.59030553678E+02 -0.86442946714E+02 -0.44071807008E+03  0.45297837321E+03  0.00000000000E+00 0.  1.
</event>
<event>
12    1  0.1596842E-001  0.2270687E+03  0.7818608E-02  0.1129386E+00
         21   -1    0    0  501  502  0.00000000000E+00  0.00000000000E+00  0.17465170512E+04  0.17465170512E+04  0.00000000000E+00 0.  1.
         21   -1    0    0  502  503 -0.00000000000E+00 -0.00000000000E+00 -0.29294702394E+02  0.29294702394E+02  0.00000000000E+00 0.  1.
         -6    2    1    2    0  503  0.93758627770E+02 -0.11425223743E+03  0.78340213258E+03  0.81564642998E+03  0.17238312958E+03 0.  0.
        -24    2    3    3    0    0 -0.10903870488E+02 -0.52455766530E+02  0.23501094913E+03  0.25392761914E+03  0.79866061122E+02 0.  0.
          6    2    1    2  501    0 -0.93758627770E+02  0.11425223743E+03  0.93382021624E+03  0.96016532363E+03  0.16749029347E+03 0.  0.
         24    2    5    5    0    0 -0.52194455431E+02  0.12637987340E+03  0.85826442020E+03  0.87295621693E+03  0.82089025573E+02 0.  0.
          5    1    5    5  501    0 -0.41564172339E+02 -0.12127635964E+02  0.75555796042E+02  0.87209106702E+02  0.47000000000E+01 0. -1.
        -13    1    6    6    0    0 -0.36931233089E+02  0.65003103193E+01  0.25080455318E+03  0.25359237746E+03  0.00000000000E+00 0.  1.
         14    1    6    6    0    0 -0.15263222342E+02  0.11987956308E+03  0.60745986702E+03  0.61936383947E+03  0.00000000000E+00 0. -1.
         -5    1    3    3    0  503  0.10466249826E+03 -0.61796470904E+02  0.54839118345E+03  0.56171881084E+03  0.47000000000E+01 0.  1.
         13    1    4    4    0    0  0.23882313701E+02 -0.19494612978E+02  0.28685959577E+02  0.42110439557E+02  0.00000000000E+00 0. -1.
        -14    1    4    4    0    0 -0.34786184189E+02 -0.32961153552E+02  0.20632498955E+03  0.21181717958E+03  0.00000000000E+00 0.  1.
</event>
<event>
12    1  0.1596842E-001  0.1901475E+03  0.7818608E-02  0.1158702E+00
         21   -1    0    0  501  502  0.00000000000E+00  0.00000000000E+00  0.98440839394E+02  0.98440839394E+02  0.00000000000E+00 0.  1.
         21   -1    0    0  502  503 -0.00000000000E+00 -0.00000000000E+00 -0.54585102093E+03  0.54585102093E+03  0.00000000000E+00 0. -1.
         -6    2    1    2    0  503 -0.16974846671E+02  0.77391657847E+02 -0.41024396023E+03  0.45216832176E+03  0.17285389834E+03 0.  0.
        -24    2    3    3    0    0 -0.33920310334E+01  0.68935647863E+02 -0.41867305018E+03  0.43348312594E+03  0.88638976187E+02 0.  0.
          6    2    1    2  501    0  0.16974846671E+02 -0.77391657847E+02 -0.37166221302E+02  0.19212353856E+03  0.17103365733E+03 0.  0.
         24    2    5    5    0    0  0.50230214524E+02 -0.77080787489E+01 -0.59253767179E+02  0.11167684584E+03  0.79863759260E+02 0.  0.
          5    1    5    5  501    0 -0.33255367854E+02 -0.69683579098E+02  0.22087545877E+02  0.80446692721E+02  0.47000000000E+01 0. -1.
        -11    1    6    6    0    0  0.31274355843E+00  0.64208410049E+01  0.17721454380E+02  0.18851391277E+02  0.00000000000E+00 0.  1.
         12    1    6    6    0    0  0.49917470966E+02 -0.14128919754E+02 -0.76975221559E+02  0.92825454565E+02  0.00000000000E+00 0. -1.
         -5    1    3    3    0  503 -0.13582815637E+02  0.84560099840E+01  0.84290899532E+01  0.18685195823E+02  0.47000000000E+01 0.  1.
         11    1    4    4    0    0  0.13124726413E+02 -0.13235811790E+02 -0.26162222758E+02  0.32123310178E+02  0.00000000000E+00 0. -1.
        -12    1    4    4    0    0 -0.16516757447E+02  0.82171459652E+02 -0.39251082743E+03  0.40135981576E+03  0.00000000000E+00 0.  1.
</event>
<event>
12    1  0.1596842E-001  0.2461401E+03  0.7818608E-02  0.1117181E+00
         21   -1    0    0  501  502  0.00000000000E+00  0.00000000000E+00  0.10616593302E+03  0.10616593302E+03  0.00000000000E+00 0.  1.
         21   -1    0    0  502  503 -0.00000000000E+00 -0.00000000000E+00 -0.74126460917E+03  0.74126460917E+03  0.00000000000E+00 0.  1.
         -6    2    1    2    0  503 -0.20362839334E+02  0.15887477823E+03 -0.53643638529E+03  0.59021092883E+03  0.18689329755E+03 0.  0.
        -24    2    3    3    0    0  0.85443422729E+01 -0.57495800986E+01 -0.21631307620E+03  0.22904915410E+03  0.74606330862E+02 0.  0.
          6    2    1    2  501    0  0.20362839334E+02 -0.15887477823E+03 -0.98662290861E+02  0.25721961336E+03  0.17541904535E+03 0.  0.
         24    2    5    5    0    0  0.62966390398E+02 -0.17014602824E+03 -0.79501085483E+02  0.20893560532E+03  0.66477269299E+02 0.  0.
          5    1    5    5  501    0 -0.42603551065E+02  0.11271250006E+02 -0.19161205378E+02  0.48284008031E+02  0.47000000000E+01 0. -1.
        -13    1    6    6    0    0  0.18539686679E+01 -0.48482089206E+02 -0.49912406410E+02  0.69607459997E+02  0.00000000000E+00 0.  1.
         14    1    6    6    0    0  0.61112421730E+02 -0.12166393903E+03 -0.29588679074E+02  0.13932814533E+03  0.00000000000E+00 0. -1.
         -5    1    3    3    0  503 -0.28907181607E+02  0.16462435833E+03 -0.32012330909E+03  0.36116177473E+03  0.47000000000E+01 0.  1.
         13    1    4    4    0    0  0.29990200099E+02 -0.25089654559E+02 -0.72567655138E+02  0.82431592488E+02  0.00000000000E+00 0. -1.
        -14    1    4    4    0    0 -0.21445857826E+02  0.19340074461E+02 -0.14374542106E+03  0.14661756161E+03  0.00000000000E+00 0.  1.
</event>
<event>
12    1  0.1596842E-001  0.2149123E+03  0.7818608E-02  0.1137846E+00
         21   -1    0    0  501  502  0.00000000000E+00  0.00000000000E+00  0.11064199402E+04  0.11064199402E+04  0.00000000000E+00 0.  1.
         21   -1    0    0  502  503 -0.00000000000E+00 -0.00000000000E+00 -0.41652350594E+02  0.41652350594E+02  0.00000000000E+00 0.  1.
         -6    2    1    2    0  503 -0.12799977414E+03 -0.92540776654E+01  0.54433287466E+03  0.58500960688E+03  0.17166357089E+03 0.  0.
        -24    2    3    3    0    0 -0.41129503371E+02 -0.53467889939E+02  0.24593126483E+03  0.27105592258E+03  0.91862260152E+02 0.  0.
          6    2    1    2  501    0  0.12799977414E+03  0.92540776654E+01  0.52043471496E+03  0.56306268393E+03  0.17238826342E+03 0.  0.
         24    2    5    5    0    0  0.15949088322E+03 -0.85305216851E+01  0.42448047333E+03  0.46041138870E+03  0.79277127684E+02 0.  0.
          5    1    5    5  501    0 -0.31491109085E+02  0.17784599350E+02  0.95954241630E+02  0.10265129523E+03  0.47000000000E+01 0. -1.
        -13    1    6    6    0    0  0.13830554644E+03 -0.72779732358E+01  0.41437220203E+03  0.43690469771E+03  0.00000000000E+00 0.  1.
         14    1    6    6    0    0  0.21185336789E+02 -0.12525484492E+01  0.10108271303E+02  0.23506690988E+02  0.00000000000E+00 0. -1.
         -5    1    3    3    0  503 -0.86870270768E+02  0.44213812273E+02  0.29840160982E+03  0.31395368430E+03  0.47000000000E+01 0.  1.
         11    1    4    4    0    0 -0.71941057632E+01  0.25577975328E+02  0.41676435985E+02  0.49425836321E+02  0.00000000000E+00 0. -1.
        -12    1    4    4    0    0 -0.33935397608E+02 -0.79045865267E+02  0.20425482885E+03  0.22163008626E+03  0.00000000000E+00 0.  1.
</event>
<event>
12    1  0.1596842E-001  0.1732822E+03  0.7818608E-02  0.1174767E+00
         21   -1    0    0  503  502  0.00000000000E+00  0.00000000000E+00  0.11771677874E+03  0.11771677874E+03  0.00000000000E+00 0.  1.
         21   -1    0    0  501  503 -0.00000000000E+00 -0.00000000000E+00 -0.25503689352E+03  0.25503689352E+03  0.00000000000E+00 0.  1.
          6    2    1    2  501    0  0.20845237671E+02  0.82761070212E+00 -0.53287409132E+02  0.18017061644E+03  0.17084113726E+03 0.  0.
         24    2    3    3    0    0  0.19168985000E+02  0.88929221183E+01  0.36079554785E+02  0.90301804766E+02  0.80038413408E+02 0.  0.
         -6    2    1    2    0  502 -0.20845237671E+02 -0.82761070212E+00 -0.84032705655E+02  0.19258305582E+03  0.17202188494E+03 0.  0.
        -24    2    5    5    0    0 -0.27213778198E+02  0.57182956661E+02 -0.86859247249E+02  0.13396681599E+03  0.79950601614E+02 0.  0.
          5    1    3    3  501    0  0.16762526718E+01 -0.80653114162E+01 -0.89366963917E+02  0.89868811670E+02  0.47000000000E+01 0. -1.
        -11    1    4    4    0    0  0.12968558673E+02 -0.34997937948E+02  0.23945284644E+02  0.44344287472E+02  0.00000000000E+00 0.  1.
         12    1    4    4    0    0  0.62004263265E+01  0.43890860066E+02  0.12134270141E+02  0.45957517294E+02  0.00000000000E+00 0. -1.
         -5    1    5    5    0  502  0.63685405269E+01 -0.58010567363E+02  0.28265415943E+01  0.58616239828E+02  0.47000000000E+01 0.  1.
         11    1    6    6    0    0  0.28117736812E+02  0.26825208325E+02 -0.31836299447E+02  0.50236927529E+02  0.00000000000E+00 0. -1.
        -12    1    6    6    0    0 -0.55331515010E+02  0.30357748336E+02 -0.55022947802E+02  0.83729888464E+02  0.00000000000E+00 0.  1.
</event>
<event>
12    1  0.1596842E-001  0.2264809E+03  0.7818608E-02  0.1129253E+00
         21   -1    0    0  501  502  0.00000000000E+00  0.00000000000E+00  0.28529230826E+03  0.28529230826E+03  0.00000000000E+00 0.  1.
         21   -1    0    0  502  503 -0.00000000000E+00 -0.00000000000E+00 -0.28203434757E+03  0.28203434757E+03  0.00000000000E+00 0. -1.
         -6    2    1    2    0  503  0.38748404520E+02  0.14219856862E+03 -0.16957458775E+03  0.28243248288E+03  0.17114524477E+03 0.  0.
        -24    2    3    3    0    0 -0.40654704280E+02  0.32010300780E+02 -0.11467779996E+03  0.13586490336E+03  0.51291420589E+02 0.  0.
          6    2    1    2  501    0 -0.38748404520E+02 -0.14219856862E+03  0.17283254844E+03  0.28489417294E+03  0.17196432248E+03 0.  0.
         24    2    5    5    0    0 -0.40948375387E+02 -0.99915419354E+02  0.19507217328E+03  0.23683800272E+03  0.79870058656E+02 0.  0.
          5    1    5    5  501    0  0.21999708677E+01 -0.42283149266E+02 -0.22239624845E+02  0.48056170227E+02  0.47000000000E+01 0. -1.
        -13    1    6    6    0    0 -0.52232214972E+02 -0.28115175959E+02  0.66239789001E+02  0.88917810629E+02  0.00000000000E+00 0.  1.
         14    1    6    6    0    0  0.11283839585E+02 -0.71800243396E+02  0.12883238428E+03  0.14792019209E+03  0.00000000000E+00 0. -1.
         -5    1    3    3    0  503  0.79403108800E+02  0.11018826784E+03 -0.54896787786E+02  0.14656757952E+03  0.47000000000E+01 0.  1.
         13    1    4    4    0    0 -0.35507116992E+02  0.45871541710E+02 -0.93607302573E+02  0.11012393378E+03  0.00000000000E+00 0. -1.
        -14    1    4    4    0    0 -0.51475872878E+01 -0.13861240930E+02 -0.21070497387E+02  0.25740969584E+02  0.00000000000E+00 0.  1.
</event>
<event>
12    1  0.1596842E-001  0.1970382E+03  0.7818608E-02  0.1152779E+00
         21   -1    0    0  501  502  0.00000000000E+00  0.00000000000E+00  0.10527873625E+03  0.10527873625E+03  0.00000000000E+00 0.  1.
         21   -1    0    0  502  503 -0.00000000000E+00 -0.00000000000E+00 -0.41267382384E+03  0.41267382384E+03  0.00000000000E+00 0.  1.
         -6    2    1    2    0  503 -0.32995907408E+02  0.87041594478E+02 -0.24317665571E+03  0.31298389962E+03  0.17366365901E+03 0.  0.
        -24    2    3    3    0    0  0.30182906747E+02  0.76868179032E+01 -0.63970468665E+02  0.10700892395E+03  0.79928680181E+02 0.  0.
          6    2    1    2  501    0  0.32995907408E+02 -0.87041594478E+02 -0.64218431873E+02  0.20496866047E+03  0.17094787424E+03 0.  0.
         24    2    5    5    0    0  0.79382472153E+01 -0.11904670420E+03 -0.38996705655E+02  0.15690163585E+03  0.94139506745E+02 0.  0.
          5    1    5    5  501    0  0.25057660193E+02  0.32005109721E+02 -0.25221726218E+02  0.48067024622E+02  0.47000000000E+01 0. -1.
        -13    1    6    6    0    0  0.49663152149E+01  0.15158903580E+02  0.30324966809E+01  0.16237385278E+02  0.00000000000E+00 0.  1.
         14    1    6    6    0    0  0.29719320004E+01 -0.13420560778E+03 -0.42029202336E+02  0.14066425057E+03  0.00000000000E+00 0. -1.
         -5    1    3    3    0  503 -0.63178814155E+02  0.79354776575E+02 -0.17920618705E+03  0.20597497566E+03  0.47000000000E+01 0.  1.
         13    1    4    4    0    0 -0.13528494916E+02 -0.46266818823E+01  0.11889192357E+02  0.18595140624E+02  0.00000000000E+00 0. -1.
        -14    1    4    4    0    0  0.43711401663E+02  0.12313499785E+02 -0.75859661023E+02  0.88413783330E+02  0.00000000000E+00 0.  1.
</event>
<event>
12    1  0.1596842E-001  0.2025525E+03  0.7818608E-02  0.1147759E+00
         21   -1    0    0  503  502  0.00000000000E+00  0.00000000000E+00  0.35934078340E+03  0.35934078340E+03  0.00000000000E+00 0.  1.
         21   -1    0    0  501  503 -0.00000000000E+00 -0.00000000000E+00 -0.22038697751E+03  0.22038697751E+03  0.00000000000E+00 0.  1.
          6    2    1    2  501    0  0.84350369701E+02  0.66035699277E+02 -0.13221653146E+03  0.24125937399E+03  0.17102390447E+03 0.  0.
         24    2    3    3    0    0  0.23390069152E+02 -0.13751390805E+02 -0.13763640430E+02  0.85903925489E+02  0.80335860813E+02 0.  0.
         -6    2    1    2    0  502 -0.84350369701E+02 -0.66035699277E+02  0.27117033735E+03  0.33846838692E+03  0.17190636591E+03 0.  0.
        -24    2    5    5    0    0  0.48234073266E+01 -0.75615738628E+02  0.12457815898E+03  0.16655242948E+03  0.80492166611E+02 0.  0.
          5    1    3    3  501    0  0.60960300549E+02  0.79787090082E+02 -0.11845289103E+03  0.15535544850E+03  0.47000000000E+01 0. -1.
        -11    1    4    4    0    0  0.44464867600E+01 -0.43668101064E+01 -0.46510344034E+02  0.46926030912E+02  0.00000000000E+00 0.  1.
         12    1    4    4    0    0  0.18943582393E+02 -0.93845806984E+01  0.32746703604E+02  0.38977894577E+02  0.00000000000E+00 0. -1.
         -5    1    5    5    0  502 -0.89173777028E+02  0.95800393503E+01  0.14659217837E+03  0.17191595744E+03  0.47000000000E+01 0.  1.
         13    1    6    6    0    0 -0.99579697534E+01 -0.15057165244E+02 -0.82320611896E+01  0.19840519606E+02  0.00000000000E+00 0. -1.
        -14    1    6    6    0    0  0.14781377080E+02 -0.60558573384E+02  0.13281022017E+03  0.14671190988E+03  0.00000000000E+00 0.  1.
</event>
<event>
12    1  0.1596842E-001  0.1727064E+03  0.7818608E-02  0.1175172E+00
         21   -1    0    0  503  502  0.00000000000E+00  0.00000000000E+00  0.17455599190E+02  0.17455599190E+02  0.00000000000E+00 0. -1.
         21   -1    0    0  501  503 -0.00000000000E+00 -0.00000000000E+00 -0.22976638429E+04  0.22976638429E+04  0.00000000000E+00 0. -1.
          6    2    1    2  501    0  0.81660834077E+01  0.26973958503E+01 -0.17272677834E+04  0.17358348236E+04  0.17203074899E+03 0.  0.
         24    2    3    3    0    0 -0.20315504036E+02 -0.59281042673E+02 -0.89911574491E+03  0.90486525953E+03  0.80281090086E+02 0.  0.
         -6    2    1    2    0  502 -0.81660834077E+01 -0.26973958503E+01 -0.55294046037E+03  0.57928461849E+03  0.17249219009E+03 0.  0.
        -24    2    5    5    0    0 -0.37444850279E+01  0.64502697177E+02 -0.32188328676E+03  0.33856712741E+03  0.82729863749E+02 0.  0.
          5    1    3    3  501    0  0.28481587443E+02  0.61978438524E+02 -0.82815203844E+03  0.83096956409E+03  0.47000000000E+01 0. -1.
        -11    1    4    4    0    0 -0.43843407639E+02 -0.12279575242E+02 -0.29829558141E+03  0.30175037075E+03  0.00000000000E+00 0.  1.
         12    1    4    4    0    0  0.23527903604E+02 -0.47001467432E+02 -0.60082016350E+03  0.60311488878E+03  0.00000000000E+00 0. -1.
         -5    1    5    5    0  502 -0.44215983798E+01 -0.67200093028E+02 -0.23105717361E+03  0.24071749108E+03  0.47000000000E+01 0.  1.
         13    1    6    6    0    0 -0.32577876457E+02  0.67928620246E+02 -0.24771672229E+03  0.25891927310E+03  0.00000000000E+00 0. -1.
        -14    1    6    6    0    0  0.28833391429E+02 -0.34259230688E+01 -0.74166564477E+02  0.79647854312E+02  0.00000000000E+00 0.  1.
</event>
<event>
12    1  0.1596842E-001  0.1784037E+03  0.7818608E-02  0.1169990E+00
         21   -1    0    0  501  502  0.00000000000E+00  0.00000000000E+00  0.71631474900E+03  0.71631474900E+03  0.00000000000E+00 0.  1.
         21   -1    0    0  502  503 -0.00000000000E+00 -0.00000000000E+00 -0.46698583957E+02  0.46698583957E+02  0.00000000000E+00 0.  1.
         -6    2    1    2    0  503 -0.40618191993E+02  0.89169841209E+01  0.43219249132E+03  0.46756628042E+03  0.17348927029E+03 0.  0.
        -24    2    3    3    0    0  0.68430986200E+01 -0.49023638460E+02  0.16686236673E+03  0.19182753655E+03  0.80651157614E+02 0.  0.
          6    2    1    2  501    0  0.40618191993E+02 -0.89169841209E+01  0.23742367372E+03  0.29544705254E+03  0.17084967042E+03 0.  0.
         24    2    5    5    0    0  0.64109312817E+01  0.51195609350E+02  0.18677125288E+03  0.20959008825E+03  0.79890010228E+02 0.  0.
          5    1    5    5  501    0  0.34207260711E+02 -0.60112593471E+02  0.50652420846E+02  0.85856964288E+02  0.47000000000E+01 0. -1.
        -13    1    6    6    0    0 -0.20055796874E+02 -0.12360201908E+02  0.71968872461E+02  0.75726667580E+02  0.00000000000E+00 0.  1.
         14    1    6    6    0    0  0.26466728156E+02  0.63555811258E+02  0.11480238042E+03  0.13386342067E+03  0.00000000000E+00 0. -1.
         -5    1    3    3    0  503 -0.47461290613E+02  0.57940622581E+02  0.26533012460E+03  0.27573874387E+03  0.47000000000E+01 0.  1.
         11    1    4    4    0    0  0.37141223795E+02 -0.32142861223E+01  0.47070438204E+02  0.60045218735E+02  0.00000000000E+00 0. -1.
        -12    1    4    4    0    0 -0.30298125175E+02 -0.45809352338E+02  0.11979192852E+03  0.13178231782E+03  0.00000000000E+00 0.  1.
</event>
<event>
12    1  0.1596842E-001  0.2045119E+03  0.7818608E-02  0.1148428E+00
         21   -1    0    0  501  502  0.00000000000E+00  0.00000000000E+00  0.11300951427E+04  0.11300951427E+04  0.00000000000E+00 0. -1.
         21   -1    0    0  502  503 -0.00000000000E+00 -0.00000000000E+00 -0.67930421031E+02  0.67930421031E+02  0.00000000000E+00 0. -1.
         -6    2    1    2    0  503  0.13193905957E+02 -0.10949070111E+03  0.10585405711E+03  0.22009142206E+03  0.15834411853E+03 0.  0.
        -24    2    3    3    0    0  0.28644788959E+02 -0.52695730463E+02  0.74236912267E+00  0.99530419127E+02  0.79425369223E+02 0.  0.
          6    2    1    2  501    0 -0.13193905957E+02  0.10949070111E+03  0.95631066452E+03  0.97793414163E+03  0.17222893344E+03 0.  0.
         24    2    5    5    0    0 -0.66316007831E+02  0.49888152226E+02  0.41364805840E+03  0.42940956094E+03  0.80007588287E+02 0.  0.
          5    1    5    5  501    0  0.53122101874E+02  0.59602548883E+02  0.54266260612E+03  0.54852458069E+03  0.47000000000E+01 0. -1.
        -13    1    6    6    0    0 -0.17061724653E+02 -0.12191118086E+02  0.24381750002E+02  0.32158910763E+02  0.00000000000E+00 0.  1.
         14    1    6    6    0    0 -0.49254283178E+02  0.62079270312E+02  0.38926630840E+03  0.39725065018E+03  0.00000000000E+00 0. -1.
         -5    1    3    3    0  503 -0.15450883002E+02 -0.56794970646E+02  0.10511168799E+03  0.12056100293E+03  0.47000000000E+01 0.  1.
         11    1    4    4    0    0 -0.20679919208E+02 -0.43167967715E+02  0.87522575381E+01  0.48659372243E+02  0.00000000000E+00 0. -1.
        -12    1    4    4    0    0  0.49324708166E+02 -0.95277627480E+01 -0.80098884155E+01  0.50871046884E+02  0.00000000000E+00 0.  1.
</event>
<event>
12    1  0.1596842E-001  0.1867400E+03  0.7818608E-02  0.1161679E+00
         21   -1    0    0  503  502  0.00000000000E+00  0.00000000000E+00  0.62765817502E+02  0.62765817502E+02  0.00000000000E+00 0. -1.
         21   -1    0    0  501  503 -0.00000000000E+00 -0.00000000000E+00 -0.57627655751E+03  0.57627655751E+03  0.00000000000E+00 0.  1.
          6    2    1    2  501    0  0.53905421061E+02  0.43488438542E+02 -0.32103291676E+03  0.37086418401E+03  0.17228195097E+03 0.  0.
         24    2    3    3    0    0  0.67854120222E+02 -0.22569214544E+02 -0.25402173211E+03  0.27562360123E+03  0.79547332427E+02 0.  0.
         -6    2    1    2    0  502 -0.53905421061E+02 -0.43488438542E+02 -0.19247782325E+03  0.26817819100E+03  0.17342084932E+03 0.  0.
        -24    2    5    5    0    0 -0.39967683761E+02  0.98553205493E+01 -0.26160780150E+02  0.92897655916E+02  0.79063550188E+02 0.  0.
          5    1    3    3  501    0 -0.13948699161E+02  0.66057653086E+02 -0.67011184650E+02  0.95240582777E+02  0.47000000000E+01 0. -1.
        -11    1    4    4    0    0 -0.38201375451E+01 -0.28269339941E+02 -0.12201967969E+03  0.12530982109E+03  0.00000000000E+00 0.  1.
         12    1    4    4    0    0  0.71674257767E+02  0.57001253964E+01 -0.13200205242E+03  0.15031378014E+03  0.00000000000E+00 0. -1.
         -5    1    5    5    0  502 -0.13937737300E+02 -0.53343759091E+02 -0.16631704310E+03  0.17528053509E+03  0.47000000000E+01 0.  1.
         11    1    6    6    0    0  0.23033794807E+01  0.33452315866E+02  0.69526956570E+01  0.34244750996E+02  0.00000000000E+00 0. -1.
        -12    1    6    6    0    0 -0.42271063241E+02 -0.23596995317E+02 -0.33113475808E+02  0.58652904920E+02  0.00000000000E+00 0.  1.
</event>
<event>
12    1  0.1596842E-001  0.2705076E+03  0.7818608E-02  0.1101797E+00
         21   -1    0    0  503  502  0.00000000000E+00  0.00000000000E+00  0.51329559064E+02  0.51329559064E+02  0.00000000000E+00 0.  1.
         21   -1    0    0  501  503 -0.00000000000E+00 -0.00000000000E+00 -0.15545050366E+04  0.15545050366E+04  0.00000000000E+00 0. -1.
          6    2    1    2  501    0  0.15088711796E+03  0.14358608045E+03 -0.48835415667E+03  0.55557906239E+03  0.16369003442E+03 0.  0.
         24    2    3    3    0    0  0.16746275400E+03  0.85863599870E+02 -0.38994578058E+03  0.44019736991E+03  0.79370529361E+02 0.  0.
         -6    2    1    2    0  502 -0.15088711796E+03 -0.14358608045E+03 -0.10148213208E+04  0.10502555332E+04  0.17259920919E+03 0.  0.
        -24    2    5    5    0    0 -0.14236353809E+03 -0.17013188253E+03 -0.96341621885E+03  0.99158777776E+03  0.76572030426E+02 0.  0.
          5    1    3    3  501    0 -0.16575636034E+02  0.57722480576E+02 -0.98408376094E+02  0.11538169248E+03  0.47000000000E+01 0. -1.
        -13    1    4    4    0    0  0.23259393848E+02  0.21995034472E+02 -0.19270313084E+02  0.37364768298E+02  0.00000000000E+00 0.  1.
         14    1    4    4    0    0  0.14420336015E+03  0.63868565399E+02 -0.37067546749E+03  0.40283260162E+03  0.00000000000E+00 0. -1.
         -5    1    5    5    0  502 -0.85235798746E+01  0.26545802081E+02 -0.51405101975E+02  0.58667755463E+02  0.47000000000E+01 0.  1.
         13    1    6    6    0    0 -0.42521005713E+02 -0.82150955929E+02 -0.53634480922E+03  0.54426332769E+03  0.00000000000E+00 0. -1.
        -14    1    6    6    0    0 -0.99842532376E+02 -0.87980926598E+02 -0.42707140963E+03  0.44732445008E+03  0.00000000000E+00 0.  1.
</event>
<event>
12    1  0.1596842E-001  0.1841106E+03  0.7818608E-02  0.1164726E+00
         21   -1    0    0  501  502  0.00000000000E+00  0.00000000000E+00  0.39292570370E+03  0.39292570370E+03  0.00000000000E+00 0. -1.
         21   -1    0    0  502  503 -0.00000000000E+00 -0.00000000000E+00 -0.10071634217E+03  0.10071634217E+03  0.00000000000E+00 0.  1.
         -6    2    1    2    0  503  0.49218470565E+02 -0.44840017769E+02  0.46218147465E+02  0.18638256258E+03  0.16783699664E+03 0.  0.
        -24    2    3    3    0    0 -0.22480573142E+02 -0.24241775906E+02  0.65744763687E+02  0.10912701794E+03  0.80580966889E+02 0.  0.
          6    2    1    2  501    0 -0.49218470565E+02  0.44840017769E+02  0.24599121406E+03  0.30725948329E+03  0.17164972368E+03 0.  0.
         24    2    5    5    0    0 -0.53518295347E+02 -0.26469700552E+02  0.88332545273E+02  0.13410663098E+03  0.81345540346E+02 0.  0.
          5    1    5    5  501    0  0.42998247818E+01  0.71309718321E+02  0.15765866879E+03  0.17315285231E+03  0.47000000000E+01 0. -1.
        -13    1    6    6    0    0 -0.47925758019E+02  0.13040032066E+02  0.17229300301E+02  0.52571565574E+02  0.00000000000E+00 0.  1.
         14    1    6    6    0    0 -0.55925373279E+01 -0.39509732618E+02  0.71103244971E+02  0.81535065406E+02  0.00000000000E+00 0. -1.
         -5    1    3    3    0  503  0.71699043708E+02 -0.20598241862E+02 -0.19526616223E+02  0.77255544640E+02  0.47000000000E+01 0.  1.
         11    1    4    4    0    0  0.26505851772E+01  0.27967885799E+02  0.29728277752E+02  0.40902307221E+02  0.00000000000E+00 0. -1.
        -12    1    4    4    0    0 -0.25131158320E+02 -0.52209661706E+02  0.36016485935E+02  0.68224710721E+02  0.00000000000E+00 0.  1.
</event>
<event>
12    1  0.1596842E-001  0.1808111E+03  0.7818608E-02  0.1167160E+00
         21   -1    0    0  501  502  0.00000000000E+00  0.00000000000E+00  0.40138359956E+03  0.40138359956E+03  0.00000000000E+00 0.  1.
         21   -1    0    0  502  503 -0.00000000000E+00 -0.00000000000E+00 -0.82434426245E+02  0.82434426245E+02  0.00000000000E+00 0.  1.
         -6    2    1    2    0  503  0.29758076182E+02  0.43486425190E+02  0.18946004815E+03  0.26189264805E+03  0.17296253057E+03 0.  0.
        -24    2    3    3    0    0  0.24263501346E+02  0.43201958632E+02  0.21537149316E+03  0.23498978099E+03  0.79876093893E+02 0.  0.
          6    2    1    2  501    0 -0.29758076182E+02 -0.43486425190E+02  0.12948912516E+03  0.22192537776E+03  0.17235668680E+03 0.  0.
         24    2    5    5    0    0  0.17544555623E+02 -0.34371017724E+02  0.14493155754E+03  0.17111998094E+03  0.82387579249E+02 0.  0.
          5    1    5    5  501    0 -0.47302631806E+02 -0.91154074657E+01 -0.15442432372E+02  0.50805396825E+02  0.47000000000E+01 0. -1.
        -13    1    6    6    0    0  0.49760288817E+02 -0.10450551086E+02  0.81999695077E+02  0.96484456540E+02  0.00000000000E+00 0.  1.
         14    1    6    6    0    0 -0.32215733194E+02 -0.23920466637E+02  0.62931862458E+02  0.74635524396E+02  0.00000000000E+00 0. -1.
         -5    1    3    3    0  503  0.54945748365E+01  0.28446655802E+00 -0.25911445005E+02  0.26902867061E+02  0.47000000000E+01 0.  1.
         13    1    4    4    0    0  0.52956957599E+02  0.36916342293E+02  0.15211105901E+03  0.16524233707E+03  0.00000000000E+00 0. -1.
        -14    1    4    4    0    0 -0.28693456254E+02  0.62856163384E+01  0.63260434146E+02  0.69747443916E+02  0.00000000000E+00 0.  1.
</event>
<event>
12    1  0.1596842E-001  0.1843296E+03  0.7818608E-02  0.1163963E+00
         21   -1    0    0  501  502  0.00000000000E+00  0.00000000000E+00  0.50017802068E+03  0.50017802068E+03  0.00000000000E+00 0.  1.
         21   -1    0    0  502  503 -0.00000000000E+00 -0.00000000000E+00 -0.15725511411E+03  0.15725511411E+03  0.00000000000E+00 0.  1.
         -6    2    1    2    0  503  0.51859449649E+02 -0.34739306140E+02 -0.76657630673E+02  0.19963414454E+03  0.17343926146E+03 0.  0.
        -24    2    3    3    0    0 -0.23960806873E+02 -0.42835998366E+02 -0.75095371307E+02  0.12322211421E+03  0.84470892133E+02 0.  0.
          6    2    1    2  501    0 -0.51859449649E+02  0.34739306140E+02  0.41958053725E+03  0.45779899025E+03  0.17215070818E+03 0.  0.
         24    2    5    5    0    0  0.14286974008E+02  0.11115218418E+02  0.34774713769E+03  0.35722277947E+03  0.79701798551E+02 0.  0.
          5    1    5    5  501    0 -0.66146423657E+02  0.23624087721E+02  0.71833399554E+02  0.10057621078E+03  0.47000000000E+01 0. -1.
        -11    1    6    6    0    0  0.18194825401E+02  0.40282861970E+02  0.27844160077E+03  0.28192815695E+03  0.00000000000E+00 0.  1.
         12    1    6    6    0    0 -0.39078513930E+01 -0.29167643552E+02  0.69305536921E+02  0.75294622522E+02  0.00000000000E+00 0. -1.
         -5    1    3    3    0  503  0.75820256522E+02  0.80966922265E+01 -0.15622593657E+01  0.76412030325E+02  0.47000000000E+01 0.  1.
         11    1    4    4    0    0 -0.12357037202E+02  0.24053307595E+02 -0.90717518153E+01  0.28522879512E+02  0.00000000000E+00 0. -1.
        -12    1    4    4    0    0 -0.11603769671E+02 -0.66889305961E+02 -0.66023619492E+02  0.94699234703E+02  0.00000000000E+00 0.  1.
</event>
<event>
12    1  0.1596842E-001  0.2446174E+03  0.7818608E-02  0.1117265E+00
         21   -1    0    0  501  502  0.00000000000E+00  0.00000000000E+00  0.50042121241E+03  0.50042121241E+03  0.00000000000E+00 0.  1.
         21   -1    0    0  502  503 -0.00000000000E+00 -0.00000000000E+00 -0.13011269588E+03  0.13011269588E+03  0.00000000000E+00 0. -1.
         -6    2    1    2    0  503 -0.15557147462E+03  0.68097542499E+02  0.90259434277E+02  0.26073829310E+03  0.17606229864E+03 0.  0.
        -24    2    3    3    0    0 -0.21844972946E+02 -0.18626945646E+02  0.47526206600E+02  0.95656092844E+02  0.77892116656E+02 0.  0.
          6    2    1    2  501    0  0.15557147462E+03 -0.68097542499E+02  0.28004908225E+03  0.36979561520E+03  0.17170192061E+03 0.  0.
         24    2    5    5    0    0  0.11349181988E+03 -0.47738189344E+02  0.28896920158E+03  0.32197449923E+03  0.70746383556E+02 0.  0.
          5    1    5    5  501    0  0.42079654735E+02 -0.20359353155E+02 -0.89201193371E+01  0.47821115969E+02  0.47000000000E+01 0. -1.
        -11    1    6    6    0    0  0.64256229193E+02 -0.10031969061E+02  0.75344837940E+02  0.99530638487E+02  0.00000000000E+00 0.  1.
         12    1    6    6    0    0  0.49235590688E+02 -0.37706220283E+02  0.21362436365E+03  0.22244386074E+03  0.00000000000E+00 0. -1.
         -5    1    3    3    0  503 -0.13372650167E+03  0.86724488145E+02  0.42733227677E+02  0.16508220025E+03  0.47000000000E+01 0.  1.
         13    1    4    4    0    0 -0.25250131727E+02 -0.45272292748E+02  0.16027817234E+02  0.54259013705E+02  0.00000000000E+00 0. -1.
        -14    1    4    4    0    0  0.34051587813E+01  0.26645347103E+02  0.31498389366E+02  0.41397079139E+02  0.00000000000E+00 0.  1.
</event>
<event>
12    1  0.1596842E-001  0.2981854E+03  0.7818608E-02  0.1086255E+00
         21   -1    0    0  503  502  0.00000000000E+00  0.00000000000E+00  0.47011580811E+03  0.47011580811E+03  0.00000000000E+00 0.  1.
         21   -1    0    0  501  503 -0.00000000000E+00 -0.00000000000E+00 -0.23046334383E+03  0.23046334383E+03  0.00000000000E+00 0.  1.
          6    2    1    2  501    0 -0.10836460400E+03  0.21737119719E+03  0.26896007119E+03  0.40095692850E+03  0.17156285684E+03 0.  0.
         24    2    3    3    0    0 -0.35486098931E+02  0.52114227304E+02  0.16178658936E+03  0.19088696919E+03  0.79295514398E+02 0.  0.
         -6    2    1    2    0  502  0.10836460400E+03 -0.21737119719E+03 -0.29307606920E+02  0.29962222345E+03  0.17297808010E+03 0.  0.
        -24    2    5    5    0    0  0.11114873215E+03 -0.17443602415E+03  0.31493167915E+02  0.22498975951E+03  0.82744214773E+02 0.  0.
          5    1    3    3  501    0 -0.72878505070E+02  0.16525696988E+03  0.10717348183E+03  0.21006995931E+03  0.47000000000E+01 0. -1.
        -13    1    4    4    0    0  0.18172862094E+02  0.30054018936E+02  0.27509896306E+02  0.44612681668E+02  0.00000000000E+00 0.  1.
         14    1    4    4    0    0 -0.53658961024E+02  0.22060208368E+02  0.13427669306E+03  0.14627428752E+03  0.00000000000E+00 0. -1.
         -5    1    5    5    0  502 -0.27841281462E+01 -0.42935173032E+02 -0.60800774835E+02  0.74632463937E+02  0.47000000000E+01 0.  1.
         13    1    6    6    0    0  0.81942483346E+01  0.84471013180E+01  0.70031534915E+01  0.13694648052E+02  0.00000000000E+00 0. -1.
        -14    1    6    6    0    0  0.10295448381E+03 -0.18288312547E+03  0.24490014423E+02  0.21129511146E+03  0.00000000000E+00 0.  1.
</event>
<event>
12    1  0.1596842E-001  0.1893375E+03  0.7818608E-02  0.1159298E+00
         21   -1    0    0  503  502  0.00000000000E+00  0.00000000000E+00  0.41966881422E+03  0.41966881422E+03  0.00000000000E+00 0. -1.
         21   -1    0    0  501  503 -0.00000000000E+00 -0.00000000000E+00 -0.17755562650E+03  0.17755562650E+03  0.00000000000E+00 0.  1.
          6    2    1    2  501    0  0.34711290926E+01  0.79339566789E+02 -0.94437294253E+02  0.21158233791E+03  0.17187747838E+03 0.  0.
         24    2    3    3    0    0 -0.50826537478E+02  0.35445249370E+02 -0.11597114308E+02  0.10314095693E+03  0.81632477119E+02 0.  0.
         -6    2    1    2    0  502 -0.34711290926E+01 -0.79339566789E+02  0.33655048198E+03  0.38564210281E+03  0.17072430683E+03 0.  0.
        -24    2    5    5    0    0 -0.35566154478E+02 -0.26823389402E+02  0.29888407160E+03  0.31333105239E+03  0.82826412275E+02 0.  0.
          5    1    3    3  501    0  0.54297666570E+02  0.43894317419E+02 -0.82840179945E+02  0.10844138098E+03  0.47000000000E+01 0. -1.
        -11    1    4    4    0    0  0.80662627329E+01 -0.94019396308E+01 -0.25011099853E+02  0.27910861312E+02  0.00000000000E+00 0.  1.
         12    1    4    4    0    0 -0.58892800211E+02  0.44847189001E+02  0.13413985545E+02  0.75230095614E+02  0.00000000000E+00 0. -1.
         -5    1    5    5    0  502  0.32095025385E+02 -0.52516177387E+02  0.37666410371E+02  0.72311050415E+02  0.47000000000E+01 0.  1.
         13    1    6    6    0    0  0.22970023020E+02 -0.50638586359E+01  0.15071092284E+03  0.15253539551E+03  0.00000000000E+00 0. -1.
        -14    1    6    6    0    0 -0.58536177498E+02 -0.21759530766E+02  0.14817314877E+03  0.16079565688E+03  0.00000000000E+00 0.  1.
</event>
<event>
12    1  0.1596842E-001  0.2984337E+03  0.7818608E-02  0.1087559E+00
         21   -1    0    0  501  502  0.00000000000E+00  0.00000000000E+00  0.13601804497E+03  0.13601804497E+03  0.00000000000E+00 0.  1.
         21   -1    0    0  502  503 -0.00000000000E+00 -0.00000000000E+00 -0.12368520860E+04  0.12368520860E+04  0.00000000000E+00 0.  1.
         -6    2    1    2    0  503  0.20050732775E+03 -0.11201539892E+03 -0.63510782075E+02  0.29347111382E+03  0.17129225649E+03 0.  0.
        -24    2    3    3    0    0  0.11213539540E+03 -0.30417345581E+02  0.26642323037E+02  0.14307991363E+03  0.79135873618E+02 0.  0.
          6    2    1    2  501    0 -0.20050732775E+03  0.11201539892E+03 -0.10373232590E+04  0.10793990172E+04  0.19055722654E+03 0.  0.
         24    2    5    5    0    0 -0.21657525663E+03  0.67336503325E+02 -0.73371386845E+03  0.77206347731E+03  0.79416155593E+02 0.  0.
          5    1    5    5  501    0  0.16067928882E+02  0.44678895591E+02 -0.30360939051E+03  0.30733553985E+03  0.47000000000E+01 0. -1.
        -11    1    6    6    0    0 -0.16491593692E+03  0.13912660322E+02 -0.52850276085E+03  0.55381043381E+03  0.00000000000E+00 0.  1.
         12    1    6    6    0    0 -0.51659319711E+02  0.53423843003E+02 -0.20521110761E+03  0.21825304350E+03  0.00000000000E+00 0. -1.
         -5    1    3    3    0  503  0.88371932351E+02 -0.81598053335E+02 -0.90153105112E+02  0.15039120020E+03  0.47000000000E+01 0.  1.
         11    1    4    4    0    0 -0.67012999240E+01  0.96371120891E+01 -0.64340994744E+01  0.13385775515E+02  0.00000000000E+00 0. -1.
        -12    1    4    4    0    0  0.11883669532E+03 -0.40054457670E+02  0.33076422511E+02  0.12969413811E+03  0.00000000000E+00 0.  1.
</event>
<event>
12    1  0.1596842E-001  0.2482923E+03  0.7818608E-02  0.1114982E+00
         21   -1    0    0  501  502  0.00000000000E+00  0.00000000000E+00  0.98839016012E+02  0.98839016012E+02  0.00000000000E+00 0.  1.
         21   -1    0    0  502  503 -0.00000000000E+00 -0.00000000000E+00 -0.67235066357E+03  0.67235066357E+03  0.00000000000E+00 0.  1.
         -6    2    1    2    0  503  0.29208976868E+02  0.17344130584E+03 -0.17560517691E+03  0.30411547317E+03  0.17525407831E+03 0.  0.
        -24    2    3    3    0    0  0.63488523663E+02  0.75296415725E+02 -0.15105275228E+03  0.19719298564E+03  0.79798475908E+02 0.  0.
          6    2    1    2  501    0 -0.29208976868E+02 -0.17344130584E+03 -0.39790647064E+03  0.46707420641E+03  0.16998148138E+03 0.  0.
         24    2    5    5    0    0 -0.50285031954E+02 -0.19174280406E+03 -0.32285007083E+03  0.38685763650E+03  0.78312038248E+02 0.  0.
          5    1    5    5  501    0  0.21076055086E+02  0.18301498223E+02 -0.75056399813E+02  0.80216569909E+02  0.47000000000E+01 0. -1.
        -13    1    6    6    0    0 -0.44742512749E+02 -0.17644851186E+03 -0.32280171965E+03  0.37058996209E+03  0.00000000000E+00 0.  1.
         14    1    6    6    0    0 -0.55425192049E+01 -0.15294292198E+02 -0.48351174247E-01  0.16267674413E+02  0.00000000000E+00 0. -1.
         -5    1    3    3    0  503 -0.34279546795E+02  0.98144890114E+02 -0.24552424631E+02  0.10692248753E+03  0.47000000000E+01 0.  1.
         11    1    4    4    0    0  0.69501756963E+02  0.37667037644E+02 -0.62452100355E+02  0.10074504844E+03  0.00000000000E+00 0. -1.
        -12    1    4    4    0    0 -0.60132333001E+01  0.37629378082E+02 -0.88600651928E+02  0.96447937208E+02  0.00000000000E+00 0.  1.
</event>
<event>
12    1  0.1596842E-001  0.2173480E+03  0.7818608E-02  0.1137607E+00
         21   -1    0    0  503  502  0.00000000000E+00  0.00000000000E+00  0.51445922798E+03  0.51445922798E+03  0.00000000000E+00 0.  1.
         21   -1    0    0  501  503 -0.00000000000E+00 -0.00000000000E+00 -0.10019154315E+03  0.10019154315E+03  0.00000000000E+00 0. -1.
          6    2    1    2  501    0  0.98059643074E+02  0.90279218617E+02  0.96504016021E+02  0.22966520421E+03  0.16020939424E+03 0.  0.
         24    2    3    3    0    0  0.82203367680E+02  0.35467455703E+02  0.11837156794E+03  0.16837874037E+03  0.79525078048E+02 0.  0.
         -6    2    1    2    0  502 -0.98059643074E+02 -0.90279218617E+02  0.31776366881E+03  0.38498556692E+03  0.17168024525E+03 0.  0.
        -24    2    5    5    0    0 -0.12994060003E+03 -0.84883156926E+02  0.21503954220E+03  0.27719016310E+03  0.80639146474E+02 0.  0.
          5    1    3    3  501    0  0.15856275394E+02  0.54811762914E+02 -0.21867551923E+02  0.61286463841E+02  0.47000000000E+01 0. -1.
        -13    1    4    4    0    0  0.30586582681E+02  0.55961563768E+02  0.70408300132E+02  0.94997707272E+02  0.00000000000E+00 0.  1.
         14    1    4    4    0    0  0.51616784999E+02 -0.20494108065E+02  0.47963267813E+02  0.73381033097E+02  0.00000000000E+00 0. -1.
         -5    1    5    5    0  502  0.31880956953E+02 -0.53960616913E+01  0.10272412661E+03  0.10779540382E+03  0.47000000000E+01 0.  1.
         11    1    6    6    0    0 -0.50314325895E+02 -0.13267224852E+02  0.22124349337E+02  0.56542351199E+02  0.00000000000E+00 0. -1.
        -12    1    6    6    0    0 -0.79626274132E+02 -0.71615932073E+02  0.19291519286E+03  0.22064781190E+03  0.00000000000E+00 0.  1.
</event>
<event>
12    1  0.1596842E-001  0.1825722E+03  0.7818608E-02  0.1167514E+00
         21   -1    0    0  501  502  0.00000000000E+00  0.00000000000E+00  0.43781650767E+03  0.43781650767E+03  0.00000000000E+00 0.  1.
         21   -1    0    0  502  503 -0.00000000000E+00 -0.00000000000E+00 -0.98785109282E+02  0.98785109282E+02  0.00000000000E+00 0.  1.
         -6    2    1    2    0  503 -0.83228557232E+01  0.36115969447E+02  0.34153527336E+02  0.18573922717E+03  0.17877070203E+03 0.  0.
        -24    2    3    3    0    0 -0.61552873120E+02  0.46729862503E+02  0.58572537026E+02  0.12603606551E+03  0.80510319067E+02 0.  0.
          6    2    1    2  501    0  0.83228557232E+01 -0.36115969447E+02  0.30487787106E+03  0.35086238979E+03  0.16964747900E+03 0.  0.
         24    2    5    5    0    0  0.37612737869E+02 -0.23581326437E+02  0.30517625411E+03  0.31865690106E+03  0.80242616580E+02 0.  0.
          5    1    5    5  501    0 -0.29289882146E+02 -0.12534643011E+02 -0.29838305529E+00  0.32205488724E+02  0.47000000000E+01 0. -1.
        -13    1    6    6    0    0 -0.20632862489E+02 -0.22954455075E+02  0.14419843135E+03  0.14746460465E+03  0.00000000000E+00 0.  1.
         14    1    6    6    0    0  0.58245600357E+02 -0.62687136164E+00  0.16097782276E+03  0.17119229641E+03  0.00000000000E+00 0. -1.
         -5    1    3    3    0  503  0.53230017397E+02 -0.10613893056E+02 -0.24419009690E+02  0.59703161660E+02  0.47000000000E+01 0.  1.
         11    1    4    4    0    0 -0.22892997481E+02 -0.20974284648E+02  0.29498030700E+02  0.42826904690E+02  0.00000000000E+00 0. -1.
        -12    1    4    4    0    0 -0.38659875640E+02  0.67704147152E+02  0.29074506326E+02  0.83209160818E+02  0.00000000000E+00 0.  1.
</event>
<event>
12    1  0.1596842E-001  0.1773742E+03  0.7818608E-02  0.1170951E+00
         21   -1    0    0  503  502  0.00000000000E+00  0.00000000000E+00  0.19084834436E+03  0.19084834436E+03  0.00000000000E+00 0.  1.
         21   -1    0    0  501  503 -0.00000000000E+00 -0.00000000000E+00 -0.16583930313E+03  0.16583930313E+03  0.00000000000E+00 0.  1.
          6    2    1    2  501    0  0.41885981645E+02  0.13351764191E+02  0.37032585857E+02  0.17890642074E+03  0.16942074815E+03 0.  0.
         24    2    3    3    0    0 -0.22249145678E+02  0.51691692925E+02  0.85113209308E+01  0.98788899282E+02  0.80744959203E+02 0.  0.
         -6    2    1    2    0  502 -0.41885981645E+02 -0.13351764191E+02 -0.12023544626E+02  0.17778122675E+03  0.17183973316E+03 0.  0.
        -24    2    5    5    0    0 -0.15115314310E+02 -0.36546156964E+02  0.53183609172E+02  0.10342592168E+03  0.79399815335E+02 0.  0.
          5    1    3    3  501    0  0.64135127322E+02 -0.38339928734E+02  0.28521264927E+02  0.80117521461E+02  0.47000000000E+01 0. -1.
        -13    1    4    4    0    0 -0.35847335125E+02  0.23093132043E+02  0.36800899400E+02  0.56326107444E+02  0.00000000000E+00 0.  1.
         14    1    4    4    0    0  0.13598189448E+02  0.28598560882E+02 -0.28289578469E+02  0.42462791839E+02  0.00000000000E+00 0. -1.
         -5    1    5    5    0  502 -0.26770667335E+02  0.23194392773E+02 -0.65207153798E+02  0.74355305071E+02  0.47000000000E+01 0.  1.
         13    1    6    6    0    0 -0.31443403130E+02  0.86973488320E+01  0.43477879927E+02  0.54356761493E+02  0.00000000000E+00 0. -1.
        -14    1    6    6    0    0  0.16328088820E+02 -0.45243505796E+02  0.97057292457E+01  0.49069160187E+02  0.00000000000E+00 0.  1.
</event>
<event>
12    1  0.1596842E-001  0.2309336E+03  0.7818608E-02  0.1126754E+00
         21   -1    0    0  503  502  0.00000000000E+00  0.00000000000E+00  0.91315240560E+02  0.91315240560E+02  0.00000000000E+00 0.  1.
         21   -1    0    0  501  503 -0.00000000000E+00 -0.00000000000E+00 -0.65657018504E+03  0.65657018504E+03  0.00000000000E+00 0.  1.
          6    2    1    2  501    0  0.14065301447E+03  0.24440718551E+02 -0.41832376367E+03  0.47783373840E+03  0.18152049773E+03 0.  0.
         24    2    3    3    0    0  0.11539694587E+03 -0.52040245052E+02 -0.25443051810E+03  0.29515836310E+03  0.79742890270E+02 0.  0.
         -6    2    1    2    0  502 -0.14065301447E+03 -0.24440718551E+02 -0.14693118081E+03  0.27005168720E+03  0.17595034147E+03 0.  0.
        -24    2    5    5    0    0 -0.33821836451E+02  0.43055410510E+02 -0.40840918702E+02  0.10498848189E+03  0.79730268363E+02 0.  0.
          5    1    3    3  501    0  0.25256068602E+02  0.76480963603E+02 -0.16389324557E+03  0.18267537530E+03  0.47000000000E+01 0. -1.
        -13    1    4    4    0    0  0.10975359983E+03 -0.50007977459E+02 -0.26022624586E+03  0.28681762415E+03  0.00000000000E+00 0.  1.
         14    1    4    4    0    0  0.56433460341E+01 -0.20322675932E+01  0.57957277626E+01  0.83407389558E+01  0.00000000000E+00 0. -1.
         -5    1    5    5    0  502 -0.10683117802E+03 -0.67496129061E+02 -0.10609026211E+03  0.16506320531E+03  0.47000000000E+01 0.  1.
         13    1    6    6    0    0 -0.97666571770E+01 -0.15970628042E+02  0.11964350815E+02  0.22216980958E+02  0.00000000000E+00 0. -1.
        -14    1    6    6    0    0 -0.24055179274E+02  0.59026038553E+02 -0.52805269517E+02  0.82771500928E+02  0.00000000000E+00 0.  1.
</event>
<event>
12    1  0.1596842E-001  0.1835422E+03  0.7818608E-02  0.1164593E+00
         21   -1    0    0  503  502  0.00000000000E+00  0.00000000000E+00  0.14683629382E+03  0.14683629382E+03  0.00000000000E+00 0.  1.
         21   -1    0    0  501  503 -0.00000000000E+00 -0.00000000000E+00 -0.62834721363E+03  0.62834721363E+03  0.00000000000E+00 0.  1.
          6    2    1    2  501    0 -0.16143967112E+01 -0.65154239230E+02 -0.55011984575E+03  0.57993067256E+03  0.17158105701E+03 0.  0.
         24    2    3    3    0    0 -0.38649007765E+02 -0.78634828751E+02 -0.23608568491E+03  0.26339815783E+03  0.77233133007E+02 0.  0.
         -6    2    1    2    0  502  0.16143967112E+01  0.65154239230E+02  0.68608925935E+02  0.19525283489E+03  0.17078876909E+03 0.  0.
        -24    2    5    5    0    0  0.64431396487E+01 -0.21282578185E+02 -0.29491489071E+01  0.82837140974E+02  0.79742286541E+02 0.  0.
          5    1    3    3  501    0  0.37034611054E+02  0.13480589521E+02 -0.31403416084E+03  0.31653251473E+03  0.47000000000E+01 0. -1.
        -13    1    4    4    0    0  0.20316615424E+02 -0.31899447251E+02 -0.11274888376E+03  0.11892287579E+03  0.00000000000E+00 0.  1.
         14    1    4    4    0    0 -0.58965623189E+02 -0.46735381500E+02 -0.12333680115E+03  0.14447528204E+03  0.00000000000E+00 0. -1.
         -5    1    5    5    0  502 -0.48287429375E+01  0.86436817415E+02  0.71558074842E+02  0.11241569391E+03  0.47000000000E+01 0.  1.
         13    1    6    6    0    0 -0.13953984012E+02 -0.34414766752E+02 -0.29090728803E+02  0.47173725130E+02  0.00000000000E+00 0. -1.
        -14    1    6    6    0    0  0.20397123661E+02  0.13132188567E+02  0.26141579896E+02  0.35663415844E+02  0.00000000000E+00 0.  1.
</event>
<event>
12    1  0.1596842E-001  0.1839256E+03  0.7818608E-02  0.1164152E+00
         21   -1    0    0  501  502  0.00000000000E+00  0.00000000000E+00  0.36589537080E+02  0.36589537080E+02  0.00000000000E+00 0.  1.
         21   -1    0    0  502  503 -0.00000000000E+00 -0.00000000000E+00 -0.29598748938E+04  0.29598748938E+04  0.00000000000E+00 0.  1.
         -6    2    1    2    0  503  0.64430489347E+02  0.15361317089E+01 -0.27041572359E+04  0.27103774820E+04  0.17183157618E+03 0.  0.
        -24    2    3    3    0    0 -0.23491930723E+02 -0.28936180798E+02 -0.13764418477E+04  0.13793969577E+04  0.82186577711E+02 0.  0.
          6    2    1    2  501    0 -0.64430489347E+02 -0.15361317089E+01 -0.21912812086E+03  0.28608694896E+03  0.17226421961E+03 0.  0.
         24    2    5    5    0    0 -0.78317822703E+02  0.14190486339E+02 -0.62717277505E+02  0.12820526395E+03  0.78537134858E+02 0.  0.
          5    1    5    5  501    0  0.13887333356E+02 -0.15726618048E+02 -0.15641084336E+03  0.15788168501E+03  0.47000000000E+01 0. -1.
        -11    1    6    6    0    0  0.90566663504E+01  0.13480568418E+02  0.57183674054E+01  0.17217684398E+02  0.00000000000E+00 0.  1.
         12    1    6    6    0    0 -0.87374489053E+02  0.70991792134E+00 -0.68435644911E+02  0.11098757955E+03  0.00000000000E+00 0. -1.
         -5    1    3    3    0  503  0.87922420070E+02  0.30472312506E+02 -0.13277153882E+04  0.13309805243E+04  0.47000000000E+01 0.  1.
         11    1    4    4    0    0  0.11489658664E+02  0.17751550576E+02 -0.14082911092E+03  0.14240775361E+03  0.00000000000E+00 0. -1.
        -12    1    4    4    0    0 -0.34981589387E+02 -0.46687731374E+02 -0.12356127367E+04  0.12369892041E+04  0.00000000000E+00 0.  1.
</event>
<event>
12    1  0.1596842E-001  0.2483070E+03  0.7818608E-02  0.1114396E+00
         21   -1    0    0  503  502  0.00000000000E+00  0.00000000000E+00  0.15315111983E+03  0.15315111983E+03  0.00000000000E+00 0. -1.
         21   -1    0    0  501  503 -0.00000000000E+00 -0.00000000000E+00 -0.57419447504E+03  0.57419447504E+03  0.00000000000E+00 0.  1.
          6    2    1    2  501    0 -0.83471950697E+02  0.15848339041E+03 -0.40946280182E+03  0.47886963942E+03  0.17196451347E+03 0.  0.
         24    2    3    3    0    0 -0.49314724444E+02  0.15105443151E+03 -0.20352930491E+03  0.26993759141E+03  0.78693976735E+02 0.  0.
         -6    2    1    2    0  502  0.83471950697E+02 -0.15848339041E+03 -0.11580553384E+02  0.24847595545E+03  0.17181862423E+03 0.  0.
        -24    2    5    5    0    0  0.83586556727E+02 -0.18051140072E+03  0.13078478742E+02  0.21507828730E+03  0.80725118813E+02 0.  0.
          5    1    3    3  501    0 -0.34157226254E+02  0.74289589055E+01 -0.20593349691E+03  0.20893204801E+03  0.47000000000E+01 0. -1.
        -11    1    4    4    0    0  0.87674867908E+01  0.27230458341E+01 -0.42307105119E+02  0.43291742247E+02  0.00000000000E+00 0.  1.
         12    1    4    4    0    0 -0.58082211234E+02  0.14833138567E+03 -0.16122219980E+03  0.22664584917E+03  0.00000000000E+00 0. -1.
         -5    1    5    5    0  502 -0.11460602980E+00  0.22028010306E+02 -0.24659032126E+02  0.33397668152E+02  0.47000000000E+01 0.  1.
         11    1    6    6    0    0  0.36089037542E+02 -0.98939033915E+01  0.53813151437E+01  0.37805641215E+02  0.00000000000E+00 0. -1.
        -12    1    6    6    0    0  0.47497519185E+02 -0.17061749733E+03  0.76971635986E+01  0.17727264609E+03  0.00000000000E+00 0.  1.
</event>
<event>
12    1  0.1596842E-001  0.2699437E+03  0.7818608E-02  0.1101660E+00
         21   -1    0    0  503  502  0.00000000000E+00  0.00000000000E+00  0.50811878941E+03  0.50811878941E+03  0.00000000000E+00 0.  1.
         21   -1    0    0  501  503 -0.00000000000E+00 -0.00000000000E+00 -0.21717236307E+03  0.21717236307E+03  0.00000000000E+00 0.  1.
          6    2    1    2  501    0 -0.19782974442E+03  0.66197949500E+02 -0.67273611715E+02  0.27820013455E+03  0.17132075104E+03 0.  0.
         24    2    3    3    0    0 -0.17231429607E+03 -0.14498808914E+01 -0.74225335589E+02  0.20541494701E+03  0.83615675717E+02 0.  0.
         -6    2    1    2    0  502  0.19782974442E+03 -0.66197949500E+02  0.35822003806E+03  0.44709101794E+03  0.16748136123E+03 0.  0.
        -24    2    5    5    0    0  0.39079396825E+02 -0.30772719795E+02  0.82404509467E+02  0.12685217649E+03  0.82624523960E+02 0.  0.
          5    1    3    3  501    0 -0.25515448347E+02  0.67647830391E+02  0.69517238731E+01  0.72785187544E+02  0.47000000000E+01 0. -1.
        -11    1    4    4    0    0 -0.19619801602E+02  0.29581748251E+02 -0.17682326033E+02  0.39657043491E+02  0.00000000000E+00 0.  1.
         12    1    4    4    0    0 -0.15269449447E+03 -0.31031629143E+02 -0.56543009556E+02  0.16575790352E+03  0.00000000000E+00 0. -1.
         -5    1    5    5    0  502  0.15875034759E+03 -0.35425229705E+02  0.27581552859E+03  0.32023884145E+03  0.47000000000E+01 0.  1.
         11    1    6    6    0    0 -0.12225051144E+02  0.17626787327E+02  0.37613393769E+02  0.43300379880E+02  0.00000000000E+00 0. -1.
        -12    1    6    6    0    0  0.51304447969E+02 -0.48399507121E+02  0.44791115698E+02  0.83551796608E+02  0.00000000000E+00 0.  1.
</event>
<event>
12    1  0.1596842E-001  0.2512766E+03  0.7818608E-02  0.1112681E+00
         21   -1    0    0  503  502  0.00000000000E+00  0.00000000000E+00  0.42409515503E+03  0.42409515503E+03  0.00000000000E+00 0.  1.
         21   -1    0    0  501  503 -0.00000000000E+00 -0.00000000000E+00 -0.23947597293E+03  0.23947597293E+03  0.00000000000E+00 0.  1.
          6    2    1    2  501    0 -0.14241221273E+03  0.11458111416E+03 -0.11264992075E+03  0.27432977595E+03  0.17075348099E+03 0.  0.
         24    2    3    3    0    0 -0.10049107801E+03  0.14769309334E+03 -0.95671708272E+02  0.21807913684E+03  0.80583668198E+02 0.  0.
         -6    2    1    2    0  502  0.14241221273E+03 -0.11458111416E+03  0.29726910286E+03  0.38924135201E+03  0.17242343386E+03 0.  0.
        -24    2    5    5    0    0  0.83073578809E+02 -0.12953403693E+03  0.27321608350E+03  0.32332245399E+03  0.78804154417E+02 0.  0.
          5    1    3    3  501    0 -0.41921134719E+02 -0.33111979182E+02 -0.16978212480E+02  0.56250639112E+02  0.47000000000E+01 0. -1.
        -11    1    4    4    0    0 -0.20889770666E+02  0.87707906185E+02 -0.18539849115E+02  0.92047733981E+02  0.00000000000E+00 0.  1.
         12    1    4    4    0    0 -0.79601307345E+02  0.59985187152E+02 -0.77131859157E+02  0.12603140286E+03  0.00000000000E+00 0. -1.
         -5    1    5    5    0  502  0.59338633920E+02  0.14952922779E+02  0.24053019359E+02  0.65918898015E+02  0.47000000000E+01 0.  1.
         13    1    6    6    0    0 -0.19270919844E+01 -0.42260026844E+02  0.31849640842E+02  0.52953027998E+02  0.00000000000E+00 0. -1.
        -14    1    6    6    0    0  0.85000670794E+02 -0.87274010091E+02  0.24136644266E+03  0.27036942600E+03  0.00000000000E+00 0.  1.
</event>
<event>
12    1  0.1596842E-001  0.1901553E+03  0.7818608E-02  0.1158913E+00
         21   -1    0    0  501  502  0.00000000000E+00  0.00000000000E+00  0.46691039850E+03  0.46691039850E+03  0.00000000000E+00 0.  1.
         21   -1    0    0  502  503 -0.00000000000E+00 -0.00000000000E+00 -0.10406455497E+03  0.10406455497E+03  0.00000000000E+00 0.  1.
         -6    2    1    2    0  503 -0.51127698240E+02  0.53336989573E+02  0.35107384770E+02  0.19336894217E+03  0.17521456374E+03 0.  0.
        -24    2    3    3    0    0 -0.72455241119E+02  0.96888278024E+01 -0.24790454144E+02  0.11610402634E+03  0.86729135628E+02 0.  0.
          6    2    1    2  501    0  0.51127698240E+02 -0.53336989573E+02  0.32773845877E+03  0.37760601130E+03  0.17238017992E+03 0.  0.
         24    2    5    5    0    0  0.78373082710E+02 -0.20940397335E+02  0.31165444599E+03  0.33207980313E+03  0.81041110576E+02 0.  0.
          5    1    5    5  501    0 -0.27245384470E+02 -0.32396592238E+02  0.16084012772E+02  0.45526208171E+02  0.47000000000E+01 0. -1.
        -13    1    6    6    0    0  0.52326362421E+02 -0.12829456239E+02  0.67306635809E+02  0.86213840974E+02  0.00000000000E+00 0.  1.
         14    1    6    6    0    0  0.26046720289E+02 -0.81109410964E+01  0.24434781019E+03  0.24586596215E+03  0.00000000000E+00 0. -1.
         -5    1    3    3    0  503  0.21327542879E+02  0.43648161771E+02  0.59897838914E+02  0.77264915828E+02  0.47000000000E+01 0.  1.
         13    1    4    4    0    0  0.22532988630E+01  0.30867579072E+02  0.77560488616E+01  0.31906756142E+02  0.00000000000E+00 0. -1.
        -14    1    4    4    0    0 -0.74708539983E+02 -0.21178751270E+02 -0.32546503006E+02  0.84197270203E+02  0.00000000000E+00 0.  1.
</event>
<event>
12    1  0.1596842E-001  0.1731604E+03  0.7818608E-02  0.1174627E+00
         21   -1    0    0  501  502  0.00000000000E+00  0.00000000000E+00  0.42305544111E+03  0.42305544111E+03  0.00000000000E+00 0.  1.
         21   -1    0    0  502  503 -0.00000000000E+00 -0.00000000000E+00 -0.12744367927E+03  0.12744367927E+03  0.00000000000E+00 0.  1.
         -6    2    1    2    0  503  0.95501216574E+01 -0.15612607742E+02 -0.35633435919E+02  0.17678879416E+03  0.17219052715E+03 0.  0.
        -24    2    3    3    0    0 -0.44212543161E+02  0.36324031545E+02 -0.21175801709E+01  0.94732464635E+02  0.75469009995E+02 0.  0.
          6    2    1    2  501    0 -0.95501216574E+01  0.15612607742E+02  0.33124519776E+03  0.37371032622E+03  0.17204961070E+03 0.  0.
         24    2    5    5    0    0  0.19499291348E+02 -0.46026882666E+02  0.24968799575E+03  0.26732911372E+03  0.81376062390E+02 0.  0.
          5    1    5    5  501    0 -0.29049413006E+02  0.61639490408E+02  0.81557202005E+02  0.10638121250E+03  0.47000000000E+01 0. -1.
        -11    1    6    6    0    0 -0.22301512427E+02 -0.25622218003E+02  0.39690436575E+02  0.52241614327E+02  0.00000000000E+00 0.  1.
         12    1    6    6    0    0  0.41800803775E+02 -0.20404664663E+02  0.20999755918E+03  0.21508749940E+03  0.00000000000E+00 0. -1.
         -5    1    3    3    0  503  0.53762664819E+02 -0.51936639288E+02 -0.33515855748E+02  0.82056329527E+02  0.47000000000E+01 0.  1.
         13    1    4    4    0    0  0.62969092128E+01  0.28311305866E+02  0.23690016673E+02  0.37448604720E+02  0.00000000000E+00 0. -1.
        -14    1    4    4    0    0 -0.50509452374E+02  0.80127256787E+01 -0.25807596844E+02  0.57283859915E+02  0.00000000000E+00 0.  1.
</event>
<event>
12    1  0.1596842E-001  0.1869405E+03  0.7818608E-02  0.1162254E+00
         21   -1    0    0  501  502  0.00000000000E+00  0.00000000000E+00  0.10336089402E+03  0.10336089402E+03  0.00000000000E+00 0. -1.
         21   -1    0    0  502  503 -0.00000000000E+00 -0.00000000000E+00 -0.36764719021E+03  0.36764719021E+03  0.00000000000E+00 0. -1.
         -6    2    1    2    0  503 -0.64871336738E+02  0.27266998717E+02 -0.20575222967E+03  0.27511786061E+03  0.16853509328E+03 0.  0.
        -24    2    3    3    0    0 -0.10686598906E+03  0.22235942351E+02 -0.12766887566E+03  0.18619113502E+03  0.80330692749E+02 0.  0.
          6    2    1    2  501    0  0.64871336738E+02 -0.27266998717E+02 -0.58534066517E+02  0.19589022362E+03  0.17319054020E+03 0.  0.
         24    2    5    5    0    0 -0.28078997911E+02  0.64466383438E+01 -0.51312532702E+01  0.83416562265E+02  0.78115323915E+02 0.  0.
          5    1    5    5  501    0  0.92950334649E+02 -0.33713637061E+02 -0.53402813247E+02  0.11247366135E+03  0.47000000000E+01 0. -1.
        -13    1    6    6    0    0 -0.34350807115E+01  0.34028678058E+02 -0.24108507570E+02  0.41844603560E+02  0.00000000000E+00 0.  1.
         14    1    6    6    0    0 -0.24643917200E+02 -0.27582039714E+02  0.18977254300E+02  0.41571958704E+02  0.00000000000E+00 0. -1.
         -5    1    3    3    0  503  0.41994652322E+02  0.50310563668E+01 -0.78083354009E+02  0.88926725595E+02  0.47000000000E+01 0.  1.
         11    1    4    4    0    0 -0.79820304240E+02 -0.82521101881E+01 -0.40327744657E+02  0.89809271685E+02  0.00000000000E+00 0. -1.
        -12    1    4    4    0    0 -0.27045684820E+02  0.30488052539E+02 -0.87341131001E+02  0.96381863333E+02  0.00000000000E+00 0.  1.
</event>
<event>
12    1  0.1596842E-001  0.2836114E+03  0.7818608E-02  0.1093862E+00
         21   -1    0    0  503  502  0.00000000000E+00  0.00000000000E+00  0.77667288986E+03  0.77667288986E+03  0.00000000000E+00 0.  1.
         21   -1    0    0  501  503 -0.00000000000E+00 -0.00000000000E+00 -0.10381445848E+03  0.10381445848E+03  0.00000000000E+00 0.  1.
          6    2    1    2  501    0  0.15946838945E+03  0.15773704489E+03  0.30239124657E+03  0.41392396926E+03  0.17199256893E+03 0.  0.
         24    2    3    3    0    0  0.16830385426E+03  0.14727614356E+03  0.31578249134E+03  0.39420313430E+03  0.75240145108E+02 0.  0.
         -6    2    1    2    0  502 -0.15946838945E+03 -0.15773704489E+03  0.37046718482E+03  0.46656337907E+03  0.17356355926E+03 0.  0.
        -24    2    5    5    0    0 -0.55861299252E+02 -0.14158147379E+03  0.27870006956E+03  0.32714055074E+03  0.78621960637E+02 0.  0.
          5    1    3    3  501    0 -0.88354648131E+01  0.10460901333E+02 -0.13391244771E+02  0.19720834964E+02  0.47000000000E+01 0. -1.
        -13    1    4    4    0    0  0.89265640106E+02  0.12402279348E+03  0.18971377191E+03  0.24360074519E+03  0.00000000000E+00 0.  1.
         14    1    4    4    0    0  0.79038214153E+02  0.23253350079E+02  0.12606871943E+03  0.15060238911E+03  0.00000000000E+00 0. -1.
         -5    1    5    5    0  502 -0.10360709019E+03 -0.16155571098E+02  0.91767115264E+02  0.13942282833E+03  0.47000000000E+01 0.  1.
         11    1    6    6    0    0  0.19982221680E+02 -0.22148920433E+02  0.48245376677E+02  0.56722836938E+02  0.00000000000E+00 0. -1.
        -12    1    6    6    0    0 -0.75843520932E+02 -0.11943255336E+03  0.23045469288E+03  0.27041771381E+03  0.00000000000E+00 0.  1.
</event>
<event>
12    1  0.1596842E-001  0.2068604E+03  0.7818608E-02  0.1144419E+00
         21   -1    0    0  503  502  0.00000000000E+00  0.00000000000E+00  0.98755480127E+02  0.98755480127E+02  0.00000000000E+00 0. -1.
         21   -1    0    0  501  503 -0.00000000000E+00 -0.00000000000E+00 -0.70919301673E+03  0.70919301673E+03  0.00000000000E+00 0. -1.
          6    2    1    2  501    0  0.64182555582E+02  0.93162580176E+02 -0.55802885882E+03  0.59455241182E+03  0.17116569847E+03 0.  0.
         24    2    3    3    0    0 -0.31433508720E+01  0.47884927591E+02 -0.13603972307E+03  0.16480857627E+03  0.79700775479E+02 0.  0.
         -6    2    1    2    0  502 -0.64182555582E+02 -0.93162580176E+02 -0.52408677777E+02  0.21339608504E+03  0.17318358125E+03 0.  0.
        -24    2    5    5    0    0 -0.55782351921E+02 -0.24211485634E+02  0.31663788467E+02  0.10423983721E+03  0.78520579074E+02 0.  0.
          5    1    3    3  501    0  0.67325906454E+02  0.45277652585E+02 -0.42198913575E+03  0.42974383555E+03  0.47000000000E+01 0. -1.
        -13    1    4    4    0    0 -0.37318462792E+02  0.72813095433E+01 -0.73761202111E+02  0.82984336298E+02  0.00000000000E+00 0.  1.
         14    1    4    4    0    0  0.34175111920E+02  0.40603618047E+02 -0.62278520961E+02  0.81824239968E+02  0.00000000000E+00 0. -1.
         -5    1    5    5    0  502 -0.84002036606E+01 -0.68951094542E+02 -0.84072466244E+02  0.10915624783E+03  0.47000000000E+01 0.  1.
         13    1    6    6    0    0 -0.34275155502E+02  0.14679116586E+02 -0.14642226819E+02  0.40058177126E+02  0.00000000000E+00 0. -1.
        -14    1    6    6    0    0 -0.21507196419E+02 -0.38890602220E+02  0.46306015286E+02  0.64181660079E+02  0.00000000000E+00 0.  1.
</event>
<event>
12    1  0.1596842E-001  0.1751908E+03  0.7818608E-02  0.1172546E+00
         21   -1    0    0  503  502  0.00000000000E+00  0.00000000000E+00  0.13703863437E+03  0.13703863437E+03  0.00000000000E+00 0. -1.
         21   -1    0    0  501  503 -0.00000000000E+00 -0.00000000000E+00 -0.32270442631E+03  0.32270442631E+03  0.00000000000E+00 0. -1.
          6    2    1    2  501    0  0.15205693351E+02 -0.36039086961E+02 -0.22000982277E+03  0.28124036055E+03  0.17076823296E+03 0.  0.
         24    2    3    3    0    0 -0.39742558825E+02 -0.14456444165E+02 -0.52711453268E+02  0.10376936200E+03  0.78747212172E+02 0.  0.
         -6    2    1    2    0  502 -0.15205693351E+02  0.36039086961E+02  0.34344030830E+02  0.17850270013E+03  0.17074446579E+03 0.  0.
        -24    2    5    5    0    0  0.12090835343E+02  0.54992942351E+02 -0.23451458051E+02  0.11166889395E+03  0.93539077309E+02 0.  0.
          5    1    3    3  501    0  0.54948252176E+02 -0.21582642796E+02 -0.16729836950E+03  0.17747099855E+03  0.47000000000E+01 0. -1.
        -11    1    4    4    0    0 -0.28396327189E+02 -0.46474452451E+02 -0.39687051855E+02  0.67389080817E+02  0.00000000000E+00 0.  1.
         12    1    4    4    0    0 -0.11346231636E+02  0.32018008286E+02 -0.13024401414E+02  0.36380281185E+02  0.00000000000E+00 0. -1.
         -5    1    5    5    0  502 -0.27296528694E+02 -0.18953855390E+02  0.57795488881E+02  0.66833806175E+02  0.47000000000E+01 0.  1.
         13    1    6    6    0    0 -0.81561519034E+01 -0.12207368341E+02  0.23156625007E+02  0.27418459792E+02  0.00000000000E+00 0. -1.
        -14    1    6    6    0    0  0.20246987247E+02  0.67200310692E+02 -0.46608083057E+02  0.84250434159E+02  0.00000000000E+00 0.  1.
</event>
<event>
12    1  0.1596842E-001  0.1989115E+03  0.7818608E-02  0.1151029E+00
         21   -1    0    0  501  502  0.00000000000E+00  0.00000000000E+00  0.13694843811E+04  0.13694843811E+04  0.00000000000E+00 0. -1.
         21   -1    0    0  502  503 -0.00000000000E+00 -0.00000000000E+00 -0.42015881158E+02  0.42015881158E+02  0.00000000000E+00 0. -1.
         -6    2    1    2    0  503  0.88644386291E+02 -0.42290358312E+02  0.26751924457E+03  0.33336515175E+03  0.17297247342E+03 0.  0.
        -24    2    3    3    0    0  0.27299977059E+02  0.40442154814E+02  0.15538449838E+03  0.18103624256E+03  0.79050124291E+02 0.  0.
          6    2    1    2  501    0 -0.88644386291E+02  0.42290358312E+02  0.10599492554E+04  0.10781351105E+04  0.17098710746E+03 0.  0.
         24    2    5    5    0    0 -0.23454814954E+02 -0.42758981836E+01  0.21698778663E+03  0.23136228132E+03  0.76657641656E+02 0.  0.
          5    1    5    5  501    0 -0.65189571337E+02  0.46566256495E+02  0.84296146872E+03  0.84677282916E+03  0.47000000000E+01 0. -1.
        -13    1    6    6    0    0  0.23135713245E+02 -0.20509759171E+02  0.80857003521E+02  0.86566543577E+02  0.00000000000E+00 0.  1.
         14    1    6    6    0    0 -0.46590528198E+02  0.16233860987E+02  0.13613078311E+03  0.14479573775E+03  0.00000000000E+00 0. -1.
         -5    1    3    3    0  503  0.61344409232E+02 -0.82732513126E+02  0.11213474619E+03  0.15232890919E+03  0.47000000000E+01 0.  1.
         13    1    4    4    0    0  0.52945349397E+02  0.15243830230E+02  0.75808042663E+02  0.93714693166E+02  0.00000000000E+00 0. -1.
        -14    1    4    4    0    0 -0.25645372338E+02  0.25198324585E+02  0.79576455719E+02  0.87321549396E+02  0.00000000000E+00 0.  1.
</event>
<event>
12    1  0.1596842E-001  0.2035881E+03  0.7818608E-02  0.1146977E+00
         21   -1    0    0  503  502  0.00000000000E+00  0.00000000000E+00  0.50994671559E+03  0.50994671559E+03  0.00000000000E+00 0. -1.
         21   -1    0    0  501  503 -0.00000000000E+00 -0.00000000000E+00 -0.10978841156E+03  0.10978841156E+03  0.00000000000E+00 0. -1.
          6    2    1    2  501    0 -0.80949025028E+02  0.68355153749E+02  0.40546310992E+02  0.20649319343E+03  0.17254061522E+03 0.  0.
         24    2    3    3    0    0 -0.38207047351E+02  0.91392266839E+02  0.74470006436E+02  0.14707524709E+03  0.79202408684E+02 0.  0.
         -6    2    1    2    0  502  0.80949025028E+02 -0.68355153749E+02  0.35961199303E+03  0.41324193373E+03  0.17384745773E+03 0.  0.
        -24    2    5    5    0    0 -0.17006086112E+02  0.19738336441E+00  0.11664925962E+03  0.14241425055E+03  0.79909467939E+02 0.  0.
          5    1    3    3  501    0 -0.42741977677E+02 -0.23037113090E+02 -0.33923695444E+02  0.59417946345E+02  0.47000000000E+01 0. -1.
        -13    1    4    4    0    0 -0.54748527505E+02  0.94688968003E+02  0.69091300079E+02  0.12937159531E+03  0.00000000000E+00 0.  1.
         14    1    4    4    0    0  0.16541480153E+02 -0.32967011645E+01  0.53787063571E+01  0.17703651779E+02  0.00000000000E+00 0. -1.
         -5    1    5    5    0  502  0.97955111140E+02 -0.68552537113E+02  0.24296273342E+03  0.27082768317E+03  0.47000000000E+01 0.  1.
         13    1    6    6    0    0 -0.25096308805E+02  0.28363197480E+02  0.10365661956E+03  0.11035846350E+03  0.00000000000E+00 0. -1.
        -14    1    6    6    0    0  0.80902226933E+01 -0.28165814115E+02  0.12992640055E+02  0.32055787053E+02  0.00000000000E+00 0.  1.
</event>
<event>
12    1  0.1596842E-001  0.2313988E+03  0.7818608E-02  0.1126893E+00
         21   -1    0    0  501  502  0.00000000000E+00  0.00000000000E+00  0.75398036333E+02  0.75398036333E+02  0.00000000000E+00 0. -1.
         21   -1    0    0  502  503 -0.00000000000E+00 -0.00000000000E+00 -0.93480094897E+03  0.93480094897E+03  0.00000000000E+00 0.  1.
         -6    2    1    2    0  503 -0.85829082839E+02  0.12806158239E+03 -0.69351486921E+03  0.73110073907E+03  0.17256597726E+03 0.  0.
        -24    2    3    3    0    0 -0.23684308251E+01  0.11059996033E+03 -0.52042484932E+03  0.53809080755E+03  0.80384903381E+02 0.  0.
          6    2    1    2  501    0  0.85829082839E+02 -0.12806158239E+03 -0.16588804342E+03  0.27909824623E+03  0.16312751991E+03 0.  0.
         24    2    5    5    0    0  0.90795611283E+02 -0.30837535909E+02 -0.72762775771E+02  0.14429621697E+03  0.79574996348E+02 0.  0.
          5    1    5    5  501    0 -0.49665284441E+01 -0.97224046477E+02 -0.93125267651E+02  0.13480202926E+03  0.47000000000E+01 0. -1.
        -13    1    6    6    0    0  0.42338095564E+02  0.24110762414E+02 -0.43802313856E+02  0.65517065710E+02  0.00000000000E+00 0.  1.
         14    1    6    6    0    0  0.48457515719E+02 -0.54948298323E+02 -0.28960461915E+02  0.78779151256E+02  0.00000000000E+00 0. -1.
         -5    1    3    3    0  503 -0.83460652013E+02  0.17461622056E+02 -0.17309001990E+03  0.19300993153E+03  0.47000000000E+01 0.  1.
         11    1    4    4    0    0  0.87432872767E+01  0.45041521862E+02 -0.37953400693E+03  0.38229732693E+03  0.00000000000E+00 0. -1.
        -12    1    4    4    0    0 -0.11111718102E+02  0.65558438469E+02 -0.14089084239E+03  0.15579348062E+03  0.00000000000E+00 0.  1.
</event>
<event>
12    1  0.1596842E-001  0.1715374E+03  0.7818608E-02  0.1176878E+00
         21   -1    0    0  503  502  0.00000000000E+00  0.00000000000E+00  0.48837956646E+02  0.48837956646E+02  0.00000000000E+00 0. -1.
         21   -1    0    0  501  503 -0.00000000000E+00 -0.00000000000E+00 -0.69399554186E+03  0.69399554186E+03  0.00000000000E+00 0. -1.
          6    2    1    2  501    0 -0.39927594403E+01 -0.77249721491E+01 -0.46154490915E+03  0.49155933741E+03  0.16891199400E+03 0.  0.
         24    2    3    3    0    0 -0.63103651842E+02  0.16495342237E+01 -0.21734382800E+03  0.24008719779E+03  0.80116984076E+02 0.  0.
         -6    2    1    2    0  502  0.39927594403E+01  0.77249721491E+01 -0.18361267607E+03  0.25127416110E+03  0.17131687569E+03 0.  0.
        -24    2    5    5    0    0  0.26855103787E+02 -0.13849738021E+02 -0.23386817635E+02  0.87926156456E+02  0.79189986156E+02 0.  0.
          5    1    3    3  501    0  0.59110892402E+02 -0.93745063728E+01 -0.24420108115E+03  0.25147213962E+03  0.47000000000E+01 0. -1.
        -13    1    4    4    0    0  0.34491665281E+01 -0.20274046651E+02 -0.13662883962E+02  0.24690243326E+02  0.00000000000E+00 0.  1.
         14    1    4    4    0    0 -0.66552818370E+02  0.21923580874E+02 -0.20368094403E+03  0.21539695447E+03  0.00000000000E+00 0. -1.
         -5    1    5    5    0  502 -0.22862344347E+02  0.21574710170E+02 -0.16022585844E+03  0.16334800464E+03  0.47000000000E+01 0.  1.
         11    1    6    6    0    0  0.78926922311E+01  0.28838140334E+02 -0.28033593717E+02  0.40985549958E+02  0.00000000000E+00 0. -1.
        -12    1    6    6    0    0  0.18962411556E+02 -0.42687878355E+02  0.46467760823E+01  0.46940606498E+02  0.00000000000E+00 0.  1.
</event>
<event>
12    1  0.1596842E-001  0.1887217E+03  0.7818608E-02  0.1159838E+00
         21   -1    0    0  503  502  0.00000000000E+00  0.00000000000E+00  0.47311654383E+03  0.47311654383E+03  0.00000000000E+00 0.  1.
         21   -1    0    0  501  503 -0.00000000000E+00 -0.00000000000E+00 -0.75932461741E+02  0.75932461741E+02  0.00000000000E+00 0. -1.
          6    2    1    2  501    0 -0.65565040882E+02 -0.34882858542E+02  0.16705060815E+03  0.25203529567E+03  0.17349436929E+03 0.  0.
         24    2    3    3    0    0 -0.74920107500E+02 -0.60918957499E+02  0.18131787342E+03  0.22055449869E+03  0.80274365638E+02 0.  0.
         -6    2    1    2    0  502  0.65565040882E+02  0.34882858542E+02  0.23013347394E+03  0.29701370989E+03  0.17245329696E+03 0.  0.
        -24    2    5    5    0    0  0.12097650407E+02  0.64708355741E+02  0.67565799321E+02  0.12323609063E+03  0.79299888697E+02 0.  0.
          5    1    3    3  501    0  0.93550666184E+01  0.26036098957E+02 -0.14267265276E+02  0.31480796984E+02  0.47000000000E+01 0. -1.
        -11    1    4    4    0    0 -0.68697650925E+02 -0.72303458713E+02  0.18202860205E+03  0.20756100151E+03  0.00000000000E+00 0.  1.
         12    1    4    4    0    0 -0.62224565757E+01  0.11384501214E+02 -0.71072862559E+00  0.12993497178E+02  0.00000000000E+00 0. -1.
         -5    1    5    5    0  502  0.53467390475E+02 -0.29825497198E+02  0.16256767462E+03  0.17377761927E+03  0.47000000000E+01 0.  1.
         13    1    6    6    0    0 -0.53002854361E+01  0.14373996570E+01 -0.16040093891E+02  0.16954166317E+02  0.00000000000E+00 0. -1.
        -14    1    6    6    0    0  0.17397935843E+02  0.63270956084E+02  0.83605893212E+02  0.10628192431E+03  0.00000000000E+00 0.  1.
</event>
<event>
12    1  0.1596842E-001  0.1741949E+03  0.7818608E-02  0.1175147E+00
         21   -1    0    0  501  502  0.00000000000E+00  0.00000000000E+00  0.15677542398E+03  0.15677542398E+03  0.00000000000E+00 0.  1.
         21   -1    0    0  502  503 -0.00000000000E+00 -0.00000000000E+00 -0.57996797961E+03  0.57996797961E+03  0.00000000000E+00 0.  1.
         -6    2    1    2    0  503 -0.28516961863E+02  0.89458047029E+01 -0.51368321689E+03  0.54044667098E+03  0.16528433779E+03 0.  0.
        -24    2    3    3    0    0 -0.59439107949E+02 -0.11613119803E+02 -0.19392483556E+03  0.21850512205E+03  0.80434907901E+02 0.  0.
          6    2    1    2  501    0  0.28516961863E+02 -0.89458047029E+01  0.90490661259E+02  0.19629673261E+03  0.17161177967E+03 0.  0.
         24    2    5    5    0    0 -0.16076818678E+02 -0.65475742691E+02  0.54002252177E+02  0.11544048270E+03  0.76581491409E+02 0.  0.
          5    1    5    5  501    0  0.44593780541E+02  0.56529937988E+02  0.36488409082E+02  0.80856249908E+02  0.47000000000E+01 0. -1.
        -13    1    6    6    0    0 -0.93916965538E+01 -0.97830542390E+01  0.57655701483E+02  0.59229148465E+02  0.00000000000E+00 0.  1.
         14    1    6    6    0    0 -0.66851221245E+01 -0.55692688452E+02 -0.36534493058E+01  0.56211334236E+02  0.00000000000E+00 0. -1.
         -5    1    3    3    0  503  0.30922146086E+02  0.20558924505E+02 -0.31975838133E+03  0.32194154893E+03  0.47000000000E+01 0.  1.
         11    1    4    4    0    0  0.18184293458E+02 -0.13933841152E+02 -0.48753604500E+02  0.53867749253E+02  0.00000000000E+00 0. -1.
        -12    1    4    4    0    0 -0.77623401407E+02  0.23207213494E+01 -0.14517123106E+03  0.16463737279E+03  0.00000000000E+00 0.  1.
</event>
<event>
12    1  0.1596842E-001  0.1748222E+03  0.7818608E-02  0.1172915E+00
         21   -1    0    0  501  502  0.00000000000E+00  0.00000000000E+00  0.24284001018E+03  0.24284001018E+03  0.00000000000E+00 0.  1.
         21   -1    0    0  502  503 -0.00000000000E+00 -0.00000000000E+00 -0.14280386094E+03  0.14280386094E+03  0.00000000000E+00 0.  1.
         -6    2    1    2    0  503 -0.26577216395E+02  0.11083276751E+02 -0.16435666697E+02  0.17559312861E+03  0.17243441715E+03 0.  0.
        -24    2    3    3    0    0 -0.38687354712E+02  0.69518572417E+02 -0.23455144640E+02  0.11532122553E+03  0.80120521229E+02 0.  0.
          6    2    1    2  501    0  0.26577216395E+02 -0.11083276751E+02  0.11647181594E+03  0.21005074252E+03  0.17241358145E+03 0.  0.
         24    2    5    5    0    0  0.77958571412E+02 -0.25301933716E+00  0.11020817092E+03  0.15695967578E+03  0.80080559477E+02 0.  0.
          5    1    5    5  501    0 -0.51381355017E+02 -0.10830257413E+02  0.62636450162E+01  0.53091066743E+02  0.47000000000E+01 0. -1.
        -13    1    6    6    0    0  0.60388381691E+02 -0.27018712157E+02  0.10560063595E+03  0.12461244626E+03  0.00000000000E+00 0.  1.
         14    1    6    6    0    0  0.17570189721E+02  0.26765692820E+02  0.46075349754E+01  0.32347229518E+02  0.00000000000E+00 0. -1.
         -5    1    3    3    0  503  0.12110138317E+02 -0.58435295667E+02  0.70194779429E+01  0.60271903075E+02  0.47000000000E+01 0.  1.
         13    1    4    4    0    0 -0.29302298590E+02  0.92261467848E+01  0.23211123317E+02  0.38503282104E+02  0.00000000000E+00 0. -1.
        -14    1    4    4    0    0 -0.93850561222E+01  0.60292425632E+02 -0.46666267957E+02  0.76817943425E+02  0.00000000000E+00 0.  1.
</event>
<event>
12    1  0.1596842E-001  0.2526716E+03  0.7818608E-02  0.1111802E+00
         21   -1    0    0  501  502  0.00000000000E+00  0.00000000000E+00  0.14932253335E+03  0.14932253335E+03  0.00000000000E+00 0.  1.
         21   -1    0    0  502  503 -0.00000000000E+00 -0.00000000000E+00 -0.56132307400E+03  0.56132307400E+03  0.00000000000E+00 0. -1.
         -6    2    1    2    0  503  0.10613736448E+03  0.14863511635E+03 -0.31666641927E+02  0.25464826253E+03  0.17460075442E+03 0.  0.
        -24    2    3    3    0    0  0.74630077018E+02  0.67195027204E+02  0.47042668537E+02  0.13699435126E+03  0.80433945175E+02 0.  0.
          6    2    1    2  501    0 -0.10613736448E+03 -0.14863511635E+03 -0.38033389872E+03  0.45599734482E+03  0.17298024747E+03 0.  0.
         24    2    5    5    0    0  0.83798330777E+00 -0.11419871408E+03 -0.20276797533E+03  0.24580377217E+03  0.79136553360E+02 0.  0.
          5    1    5    5  501    0 -0.10697534778E+03 -0.34436402270E+02 -0.17756592339E+03  0.21019357265E+03  0.47000000000E+01 0. -1.
        -11    1    6    6    0    0 -0.26703899433E+02 -0.90160731330E+02 -0.10259177852E+03  0.13916583179E+03  0.00000000000E+00 0.  1.
         12    1    6    6    0    0  0.27541882741E+02 -0.24037982754E+02 -0.10017619681E+03  0.10663794037E+03  0.00000000000E+00 0. -1.
         -5    1    3    3    0  503  0.31507287459E+02  0.81440089150E+02 -0.78709310463E+02  0.11765391127E+03  0.47000000000E+01 0.  1.
         13    1    4    4    0    0  0.65932717938E+02  0.54750066845E+01  0.27786208655E+02  0.71757733969E+02  0.00000000000E+00 0. -1.
        -14    1    4    4    0    0  0.86973590795E+01  0.61720020520E+02  0.19256459881E+02  0.65236617287E+02  0.00000000000E+00 0.  1.
</event>
<event>
12    1  0.1596842E-001  0.2112191E+03  0.7818608E-02  0.1140734E+00
         21   -1    0    0  501  502  0.00000000000E+00  0.00000000000E+00  0.36800980707E+03  0.36800980707E+03  0.00000000000E+00 0. -1.
         21   -1    0    0  502  503 -0.00000000000E+00 -0.00000000000E+00 -0.12115486329E+03  0.12115486329E+03  0.00000000000E+00 0.  1.
         -6    2    1    2    0  503  0.11086295927E+03  0.55253672683E+02  0.11095539501E+03  0.23800295178E+03  0.17026667699E+03 0.  0.
        -24    2    3    3    0    0  0.82674600958E+02 -0.32779119058E+02  0.67242455963E+02  0.13564442988E+03  0.77254793924E+02 0.  0.
          6    2    1    2  501    0 -0.11086295927E+03 -0.55253672683E+02  0.13589954877E+03  0.25116171857E+03  0.17108464992E+03 0.  0.
         24    2    5    5    0    0 -0.12547827293E+03 -0.78767052543E+02  0.15132905193E+03  0.21912040160E+03  0.56251425697E+02 0.  0.
          5    1    5    5  501    0  0.14615313657E+02  0.23513379860E+02 -0.15429503166E+02  0.32041316978E+02  0.47000000000E+01 0. -1.
        -11    1    6    6    0    0 -0.15561101227E+02 -0.16608041412E+02  0.98306926819E+00  0.22780283935E+02  0.00000000000E+00 0.  1.
         12    1    6    6    0    0 -0.10991717170E+03 -0.62159011131E+02  0.15034598267E+03  0.19634011766E+03  0.00000000000E+00 0. -1.
         -5    1    3    3    0  503  0.28188358315E+02  0.88032791741E+02  0.43712939042E+02  0.10235852190E+03  0.47000000000E+01 0.  1.
         11    1    4    4    0    0 -0.13182753275E+02 -0.46475422396E+01 -0.19626985662E+01  0.14115127291E+02  0.00000000000E+00 0. -1.
        -12    1    4    4    0    0  0.95857354233E+02 -0.28131576818E+02  0.69205154529E+02  0.12152930259E+03  0.00000000000E+00 0.  1.
</event>
<event>
12    1  0.1596842E-001  0.2075200E+03  0.7818608E-02  0.1143571E+00
         21   -1    0    0  503  502  0.00000000000E+00  0.00000000000E+00  0.10563675943E+03  0.10563675943E+03  0.00000000000E+00 0. -1.
         21   -1    0    0  501  503 -0.00000000000E+00 -0.00000000000E+00 -0.51685510472E+03  0.51685510472E+03  0.00000000000E+00 0.  1.
          6    2    1    2  501    0  0.78283847986E+02  0.84935810157E+02 -0.34878188956E+03  0.40578269096E+03  0.17224497988E+03 0.  0.
         24    2    3    3    0    0  0.84259780665E+02  0.85736039243E+02 -0.15595375164E+03  0.21280307310E+03  0.80704375380E+02 0.  0.
         -6    2    1    2    0  502 -0.78283847986E+02 -0.84935810157E+02 -0.62436455720E+02  0.21670917319E+03  0.17240099199E+03 0.  0.
        -24    2    5    5    0    0 -0.99445820160E+02 -0.16107371885E+02 -0.65759267445E+02  0.14447127414E+03  0.79992182242E+02 0.  0.
          5    1    3    3  501    0 -0.59759326793E+01 -0.80022908558E+00 -0.19282813792E+03  0.19297961786E+03  0.47000000000E+01 0. -1.
        -11    1    4    4    0    0  0.95316004236E+02  0.52839072894E+02 -0.12891578173E+03  0.16880872924E+03  0.00000000000E+00 0.  1.
         12    1    4    4    0    0 -0.11056223571E+02  0.32896966349E+02 -0.27037969911E+02  0.43994343859E+02  0.00000000000E+00 0. -1.
         -5    1    5    5    0  502  0.21161972175E+02 -0.68828438272E+02  0.33228117243E+01  0.72237899049E+02  0.47000000000E+01 0.  1.
         11    1    6    6    0    0  0.27554362473E+01  0.14917191982E+02  0.54323763600E+01  0.16112906580E+02  0.00000000000E+00 0. -1.
        -12    1    6    6    0    0 -0.10220125641E+03 -0.31024563867E+02 -0.71191643805E+02  0.12835836756E+03  0.00000000000E+00 0.  1.
</event>
<event>
12    1  0.1596842E-001  0.2450382E+03  0.7818608E-02  0.1116634E+00
         21   -1    0    0  503  502  0.00000000000E+00  0.00000000000E+00  0.13582006638E+03  0.13582006638E+03  0.00000000000E+00 0.  1.
         21   -1    0    0  501  503 -0.00000000000E+00 -0.00000000000E+00 -0.44303754534E+03  0.44303754534E+03  0.00000000000E+00 0.  1.
          6    2    1    2  501    0 -0.16842210758E+03  0.43073953998E+02 -0.17626202545E+03  0.30184771621E+03  0.17269154678E+03 0.  0.
         24    2    3    3    0    0 -0.10583043576E+02  0.27188684278E+02 -0.46694438213E+02  0.96968821294E+02  0.79820776613E+02 0.  0.
         -6    2    1    2    0  502  0.16842210758E+03 -0.43073953998E+02 -0.13095545352E+03  0.27700989551E+03  0.17135862853E+03 0.  0.
        -24    2    5    5    0    0  0.16553652282E+03  0.12502125514E+02 -0.79849476521E+02  0.20130693587E+03  0.81178199043E+02 0.  0.
          5    1    3    3  501    0 -0.15783906400E+03  0.15885269720E+02 -0.12956758724E+03  0.20487889491E+03  0.47000000000E+01 0. -1.
        -13    1    4    4    0    0 -0.43057977799E+02  0.14303230519E+02 -0.41797221212E+02  0.61689379608E+02  0.00000000000E+00 0.  1.
         14    1    4    4    0    0  0.32474934222E+02  0.12885453760E+02 -0.48972170011E+01  0.35279441686E+02  0.00000000000E+00 0. -1.
         -5    1    5    5    0  502  0.28855847542E+01 -0.55576079512E+02 -0.51105976997E+02  0.75702959640E+02  0.47000000000E+01 0.  1.
         11    1    6    6    0    0  0.55009786525E+02  0.25024748848E+02 -0.65549803767E+02  0.89157677417E+02  0.00000000000E+00 0. -1.
        -12    1    6    6    0    0  0.11052673630E+03 -0.12522623334E+02 -0.14299672754E+02  0.11214925846E+03  0.00000000000E+00 0.  1.
</event>
<event>
12    1  0.1596842E-001  0.1878844E+03  0.7818608E-02  0.1160440E+00
         21   -1    0    0  503  502  0.00000000000E+00  0.00000000000E+00  0.32787967321E+02  0.32787967321E+02  0.00000000000E+00 0.  1.
         21   -1    0    0  501  503 -0.00000000000E+00 -0.00000000000E+00 -0.11023711753E+04  0.11023711753E+04  0.00000000000E+00 0. -1.
          6    2    1    2  501    0 -0.53669865063E+02 -0.52789332269E+02 -0.62351999815E+03  0.65114165003E+03  0.17187522303E+03 0.  0.
         24    2    3    3    0    0 -0.49114668248E+02  0.83925103423E+01 -0.53849221190E+03  0.54618555388E+03  0.76564431223E+02 0.  0.
         -6    2    1    2    0  502  0.53669865063E+02  0.52789332269E+02 -0.44606320988E+03  0.48401749264E+03  0.17214348073E+03 0.  0.
        -24    2    5    5    0    0  0.52221504879E+02  0.72681966646E+02 -0.44753821983E+03  0.46347289958E+03  0.80665460958E+02 0.  0.
          5    1    3    3  501    0 -0.45551968151E+01 -0.61181842611E+02 -0.85027786249E+02  0.10495609614E+03  0.47000000000E+01 0. -1.
        -13    1    4    4    0    0 -0.55347925696E+02  0.16712849715E+02 -0.21835722409E+03  0.22588180435E+03  0.00000000000E+00 0.  1.
         14    1    4    4    0    0  0.62332574475E+01 -0.83203393726E+01 -0.32013498781E+03  0.32030374953E+03  0.00000000000E+00 0. -1.
         -5    1    5    5    0  502  0.14483601837E+01 -0.19892634377E+02  0.14750099493E+01  0.20544593061E+02  0.47000000000E+01 0.  1.
         13    1    6    6    0    0 -0.19100812137E+02  0.17912821188E+02 -0.16219412371E+03  0.16429438199E+03  0.00000000000E+00 0. -1.
        -14    1    6    6    0    0  0.71322317017E+02  0.54769145458E+02 -0.28534409612E+03  0.29917851760E+03  0.00000000000E+00 0.  1.
</event>
<event>
12    1  0.1596842E-001  0.3522801E+03  0.7818608E-02  0.1061996E+00
         21   -1    0    0  501  502  0.00000000000E+00  0.00000000000E+00  0.19199018940E+03  0.19199018940E+03  0.00000000000E+00 0.  1.
         21   -1    0    0  502  503 -0.00000000000E+00 -0.00000000000E+00 -0.67420082031E+03  0.67420082031E+03  0.00000000000E+00 0. -1.
         -6    2    1    2    0  503 -0.11979297215E+03  0.27792724932E+03 -0.33650809694E+03  0.48496864766E+03  0.17424975700E+03 0.  0.
        -24    2    3    3    0    0 -0.12715417843E+03  0.17886367474E+03 -0.29683017875E+03  0.37789761349E+03  0.80858221761E+02 0.  0.
          6    2    1    2  501    0  0.11979297215E+03 -0.27792724932E+03 -0.14570253396E+03  0.38122236205E+03  0.18029794461E+03 0.  0.
         24    2    5    5    0    0  0.15652735993E+03 -0.24903341013E+03 -0.11890104402E+03  0.32714206016E+03  0.79787314106E+02 0.  0.
          5    1    5    5  501    0 -0.36734387778E+02 -0.28893839196E+02 -0.26801489938E+02  0.54080301884E+02  0.47000000000E+01 0. -1.
        -11    1    6    6    0    0  0.26539936066E+02 -0.57592757372E+01 -0.10003799943E+01  0.27176059750E+02  0.00000000000E+00 0.  1.
         12    1    6    6    0    0  0.12998742387E+03 -0.24327413439E+03 -0.11790066403E+03  0.29996600041E+03  0.00000000000E+00 0. -1.
         -5    1    3    3    0  503  0.73612062807E+01  0.99063574586E+02 -0.39677918189E+02  0.10707103418E+03  0.47000000000E+01 0.  1.
         13    1    4    4    0    0 -0.47948512514E+02  0.62970099032E+02 -0.17485242861E+03  0.19193140706E+03  0.00000000000E+00 0. -1.
        -14    1    4    4    0    0 -0.79205665920E+02  0.11589357570E+03 -0.12197775015E+03  0.18596620643E+03  0.00000000000E+00 0.  1.
</event>
<event>
12    1  0.1596842E-001  0.1822461E+03  0.7818608E-02  0.1166115E+00
         21   -1    0    0  503  502  0.00000000000E+00  0.00000000000E+00  0.10738551855E+03  0.10738551855E+03  0.00000000000E+00 0.  1.
         21   -1    0    0  501  503 -0.00000000000E+00 -0.00000000000E+00 -0.14074172541E+04  0.14074172541E+04  0.00000000000E+00 0.  1.
          6    2    1    2  501    0  0.30318443544E+01  0.57342909817E+02 -0.13192807900E+04  0.13315429223E+04  0.17090157890E+03 0.  0.
         24    2    3    3    0    0 -0.57239800125E+02  0.53868197942E+01 -0.63073885845E+03  0.63840210837E+03  0.80126973465E+02 0.  0.
         -6    2    1    2    0  502 -0.30318443544E+01 -0.57342909817E+02  0.19249054512E+02  0.18325985029E+03  0.17296313261E+03 0.  0.
        -24    2    5    5    0    0  0.47557789777E+02  0.12925251009E+02  0.29553441596E+02  0.95937482595E+02  0.76823103129E+02 0.  0.
          5    1    3    3  501    0  0.60271644479E+02  0.51956090022E+02 -0.68854193158E+03  0.69314081395E+03  0.47000000000E+01 0. -1.
        -11    1    4    4    0    0  0.48011337414E+01 -0.12601162594E+02 -0.35271839559E+03  0.35297607110E+03  0.00000000000E+00 0.  1.
         12    1    4    4    0    0 -0.62040933866E+02  0.17987982388E+02 -0.27802046286E+03  0.28542603727E+03  0.00000000000E+00 0. -1.
         -5    1    5    5    0  502 -0.50589634131E+02 -0.70268160826E+02 -0.10304387084E+02  0.87322367699E+02  0.47000000000E+01 0.  1.
         11    1    6    6    0    0  0.34745527953E+02 -0.29663263745E+02  0.22436963296E+02  0.50897723433E+02  0.00000000000E+00 0. -1.
        -12    1    6    6    0    0  0.12812261823E+02  0.42588514754E+02  0.71164783007E+01  0.45039759162E+02  0.00000000000E+00 0.  1.
</event>
<event>
12    1  0.1596842E-001  0.1886024E+03  0.7818608E-02  0.1160224E+00
         21   -1    0    0  503  502  0.00000000000E+00  0.00000000000E+00  0.34722953862E+02  0.34722953862E+02  0.00000000000E+00 0. -1.
         21   -1    0    0  501  503 -0.00000000000E+00 -0.00000000000E+00 -0.17402695965E+04  0.17402695965E+04  0.00000000000E+00 0. -1.
          6    2    1    2  501    0  0.31890065372E+02  0.67791567481E+02 -0.28179316801E+03  0.33908444386E+03  0.17308436567E+03 0.  0.
         24    2    3    3    0    0  0.17501998489E+02  0.46911978539E+00 -0.24975679431E+03  0.26300719580E+03  0.80546810703E+02 0.  0.
         -6    2    1    2    0  502 -0.31890065372E+02 -0.67791567481E+02 -0.14237534746E+04  0.14359081065E+04  0.17072041741E+03 0.  0.
        -24    2    5    5    0    0 -0.10298053516E+01 -0.10071918567E+03 -0.75624339488E+03  0.76685774946E+03  0.77597169777E+02 0.  0.
          5    1    3    3  501    0  0.14388066882E+02  0.67322447695E+02 -0.32036373705E+02  0.76077248060E+02  0.47000000000E+01 0. -1.
        -11    1    4    4    0    0  0.15188955119E+02  0.39686287520E+02 -0.11324613676E+03  0.12095616258E+03  0.00000000000E+00 0.  1.
         12    1    4    4    0    0  0.23130433706E+01 -0.39217167734E+02 -0.13651065755E+03  0.14205103322E+03  0.00000000000E+00 0. -1.
         -5    1    5    5    0  502 -0.30860260020E+02  0.32927618185E+02 -0.66751007976E+03  0.66905035705E+03  0.47000000000E+01 0.  1.
         13    1    6    6    0    0 -0.23310661819E+02 -0.64718884657E+02 -0.62912130872E+03  0.63287087314E+03  0.00000000000E+00 0. -1.
        -14    1    6    6    0    0  0.22280856467E+02 -0.36000301009E+02 -0.12712208616E+03  0.13398687632E+03  0.00000000000E+00 0.  1.
</event>
<event>
12    1  0.1596842E-001  0.2196154E+03  0.7818608E-02  0.1134421E+00
         21   -1    0    0  501  502  0.00000000000E+00  0.00000000000E+00  0.45723478527E+02  0.45723478527E+02  0.00000000000E+00 0.  1.
         21   -1    0    0  502  503 -0.00000000000E+00 -0.00000000000E+00 -0.10543670374E+04  0.10543670374E+04  0.00000000000E+00 0.  1.
         -6    2    1    2    0  503 -0.10255222576E+03 -0.89797443369E+02 -0.46454732707E+03  0.51384348935E+03  0.17219283555E+03 0.  0.
        -24    2    3    3    0    0 -0.51173937211E+02 -0.11790239540E+03 -0.25403754795E+03  0.29528897906E+03  0.78362993154E+02 0.  0.
          6    2    1    2  501    0  0.10255222576E+03  0.89797443369E+02 -0.54409623177E+03  0.58624702655E+03  0.17048262921E+03 0.  0.
         24    2    5    5    0    0  0.36200860686E+02  0.91609747543E+02 -0.46961777994E+03  0.48637251588E+03  0.79463934034E+02 0.  0.
          5    1    5    5  501    0  0.66351365071E+02 -0.18123041741E+01 -0.74478451837E+02  0.99874510669E+02  0.47000000000E+01 0. -1.
        -11    1    6    6    0    0 -0.90563562584E+01  0.71030494909E+02 -0.20554548994E+03  0.21766096855E+03  0.00000000000E+00 0.  1.
         12    1    6    6    0    0  0.45257216944E+02  0.20579252634E+02 -0.26407229000E+03  0.26871154733E+03  0.00000000000E+00 0. -1.
         -5    1    3    3    0  503 -0.51378288545E+02  0.28104952028E+02 -0.21050977912E+03  0.21855451029E+03  0.47000000000E+01 0.  1.
         13    1    4    4    0    0  0.78078933199E+01 -0.78604259526E+01 -0.81869087063E+02  0.82615355176E+02  0.00000000000E+00 0. -1.
        -14    1    4    4    0    0 -0.58981830531E+02 -0.11004196944E+03 -0.17216846088E+03  0.21267362388E+03  0.00000000000E+00 0.  1.
</event>
<event>
12    1  0.1596842E-001  0.2587883E+03  0.7818608E-02  0.1108092E+00
         21   -1    0    0  501  502  0.00000000000E+00  0.00000000000E+00  0.17213114041E+03  0.17213114041E+03  0.00000000000E+00 0. -1.
         21   -1    0    0  502  503 -0.00000000000E+00 -0.00000000000E+00 -0.12042460293E+04  0.12042460293E+04  0.00000000000E+00 0.  1.
         -6    2    1    2    0  503 -0.10480810196E+03 -0.16165420166E+03 -0.10825511433E+04  0.11127198333E+04  0.17062130650E+03 0.  0.
        -24    2    3    3    0    0 -0.21382844319E+00 -0.62158564585E+02 -0.29580410861E+03  0.31282463356E+03  0.80594341092E+02 0.  0.
          6    2    1    2  501    0  0.10480810196E+03  0.16165420166E+03  0.50436254409E+02  0.26365733650E+03  0.17278471049E+03 0.  0.
         24    2    5    5    0    0  0.11537504389E+03  0.15302444006E+03  0.86293632805E+02  0.22500536847E+03  0.80330223256E+02 0.  0.
          5    1    5    5  501    0 -0.10566941932E+02  0.86297616014E+01 -0.35857378397E+02  0.38651968030E+02  0.47000000000E+01 0. -1.
        -11    1    6    6    0    0 -0.10700104277E+02  0.28089812526E+02  0.86936001322E+01  0.31290709204E+02  0.00000000000E+00 0.  1.
         12    1    6    6    0    0  0.12607514817E+03  0.12493462753E+03  0.77600032673E+02  0.19371465927E+03  0.00000000000E+00 0. -1.
         -5    1    3    3    0  503 -0.10459427352E+03 -0.99495637076E+02 -0.78674703472E+03  0.79989519969E+03  0.47000000000E+01 0.  1.
         13    1    4    4    0    0  0.29004634084E+02 -0.65938400380E+02 -0.22017310285E+03  0.23165780077E+03  0.00000000000E+00 0. -1.
        -14    1    4    4    0    0 -0.29218462528E+02  0.37798357953E+01 -0.75631005765E+02  0.81166832784E+02  0.00000000000E+00 0.  1.
</event>
<event>
12    1  0.1596842E-001  0.2867837E+03  0.7818608E-02  0.1092152E+00
         21   -1    0    0  501  502  0.00000000000E+00  0.00000000000E+00  0.56021840455E+03  0.56021840455E+03  0.00000000000E+00 0. -1.
         21   -1    0    0  502  503 -0.00000000000E+00 -0.00000000000E+00 -0.30258029588E+03  0.30258029588E+03  0.00000000000E+00 0.  1.
         -6    2    1    2    0  503  0.21501551060E+03 -0.78671393954E+02 -0.18104788203E+03  0.33915072015E+03  0.17269631544E+03 0.  0.
        -24    2    3    3    0    0  0.13308091046E+03 -0.36454433370E+01 -0.41029732858E+02  0.16035098843E+03  0.79405179465E+02 0.  0.
          6    2    1    2  501    0 -0.21501551060E+03  0.78671393954E+02  0.43868599070E+03  0.52364798027E+03  0.17129200444E+03 0.  0.
         24    2    5    5    0    0 -0.10911339542E+03  0.16866814881E+02  0.11544280688E+03  0.17789762253E+03  0.78296231956E+02 0.  0.
          5    1    5    5  501    0 -0.10590211519E+03  0.61804579073E+02  0.32324318381E+03  0.34575035774E+03  0.47000000000E+01 0. -1.
        -13    1    6    6    0    0 -0.10811730414E+02 -0.13688782934E+02 -0.62278393628E+01  0.18521940393E+02  0.00000000000E+00 0.  1.
         14    1    6    6    0    0 -0.98301665001E+02  0.30555597815E+02  0.12167064625E+03  0.15937568214E+03  0.00000000000E+00 0. -1.
         -5    1    3    3    0  503  0.81934600138E+02 -0.75025950617E+02 -0.14001814917E+03  0.17879973172E+03  0.47000000000E+01 0.  1.
         13    1    4    4    0    0  0.96617820402E+02 -0.34512763933E+02 -0.45768258122E+02  0.11234263458E+03  0.00000000000E+00 0. -1.
        -14    1    4    4    0    0  0.36463090062E+02  0.30867320596E+02  0.47385252646E+01  0.48008353849E+02  0.00000000000E+00 0.  1.
</event>
<event>
12    1  0.1596842E-001  0.4557062E+03  0.7818608E-02  0.1026069E+00
         21   -1    0    0  501  502  0.00000000000E+00  0.00000000000E+00  0.53278279103E+03  0.53278279103E+03  0.00000000000E+00 0.  1.
         21   -1    0    0  502  503 -0.00000000000E+00 -0.00000000000E+00 -0.40082722431E+03  0.40082722431E+03  0.00000000000E+00 0. -1.
         -6    2    1    2    0  503 -0.24565761294E+03 -0.34253204226E+03 -0.12977018987E+02  0.45541173264E+03  0.17191736512E+03 0.  0.
        -24    2    3    3    0    0 -0.78974903098E+02 -0.60448445737E+02 -0.32207176931E+00  0.12748412038E+03  0.79756174109E+02 0.  0.
          6    2    1    2  501    0  0.24565761294E+03  0.34253204226E+03  0.14493258571E+03  0.47819828270E+03  0.17318279478E+03 0.  0.
         24    2    5    5    0    0  0.20355374678E+03  0.22726239876E+03  0.16125106394E+03  0.35431039391E+03  0.80322001282E+02 0.  0.
          5    1    5    5  501    0  0.42103866161E+02  0.11526964350E+03 -0.16318478229E+02  0.12388788879E+03  0.47000000000E+01 0. -1.
        -13    1    6    6    0    0  0.13227787827E+03  0.87490945876E+02  0.81119701744E+02  0.17813620828E+03  0.00000000000E+00 0.  1.
         14    1    6    6    0    0  0.71275868511E+02  0.13977145289E+03  0.80131362198E+02  0.17617418563E+03  0.00000000000E+00 0. -1.
         -5    1    3    3    0  503 -0.16668270984E+03 -0.28208359653E+03 -0.12654947218E+02  0.32792761225E+03  0.47000000000E+01 0.  1.
         13    1    4    4    0    0  0.14231896817E+02 -0.22573389336E+02  0.27674306890E+01  0.26828407813E+02  0.00000000000E+00 0. -1.
        -14    1    4    4    0    0 -0.93206799916E+02 -0.37875056400E+02 -0.30895024583E+01  0.10065571257E+03  0.00000000000E+00 0.  1.
</event>
<event>
12    1  0.1596842E-001  0.1936920E+03  0.7818608E-02  0.1155649E+00
         21   -1    0    0  503  502  0.00000000000E+00  0.00000000000E+00  0.10395340164E+03  0.10395340164E+03  0.00000000000E+00 0. -1.
         21   -1    0    0  501  503 -0.00000000000E+00 -0.00000000000E+00 -0.76849127676E+03  0.76849127676E+03  0.00000000000E+00 0. -1.
          6    2    1    2  501    0 -0.54146401564E+02 -0.65022905998E+02 -0.65064728539E+03  0.67825527898E+03  0.17183865216E+03 0.  0.
         24    2    3    3    0    0 -0.43577669597E+02 -0.49943505698E+02 -0.65091842700E+03  0.65924870310E+03  0.80750770221E+02 0.  0.
         -6    2    1    2    0  502  0.54146401564E+02  0.65022905998E+02 -0.13890589732E+02  0.19418939941E+03  0.17423192375E+03 0.  0.
        -24    2    5    5    0    0 -0.13216360465E+02 -0.28886960056E+02  0.75190465053E+01  0.76557485486E+02  0.69248710301E+02 0.  0.
          5    1    3    3  501    0 -0.10568731967E+02 -0.15079400300E+02  0.27114160973E+00  0.19006575877E+02  0.47000000000E+01 0. -1.
        -11    1    4    4    0    0 -0.14435100271E+02 -0.60772008667E+02 -0.27304570606E+03  0.28009920878E+03  0.00000000000E+00 0.  1.
         12    1    4    4    0    0 -0.29142569325E+02  0.10828502969E+02 -0.37787272093E+03  0.37914949433E+03  0.00000000000E+00 0. -1.
         -5    1    5    5    0  502  0.67362762028E+02  0.93909866054E+02 -0.21409636238E+02  0.11763191393E+03  0.47000000000E+01 0.  1.
         11    1    6    6    0    0  0.22629370774E+02  0.71965591755E+01 -0.47966023557E+01  0.24225735897E+02  0.00000000000E+00 0. -1.
        -12    1    6    6    0    0 -0.35845731239E+02 -0.36083519231E+02  0.12315648861E+02  0.52331749589E+02  0.00000000000E+00 0.  1.
</event>
<event>
12    1  0.1596842E-001  0.2795683E+03  0.7818608E-02  0.1095991E+00
         21   -1    0    0  501  502  0.00000000000E+00  0.00000000000E+00  0.96930214287E+02  0.96930214287E+02  0.00000000000E+00 0. -1.
         21   -1    0    0  502  503 -0.00000000000E+00 -0.00000000000E+00 -0.10230522407E+04  0.10230522407E+04  0.00000000000E+00 0. -1.
         -6    2    1    2    0  503 -0.81011841902E+02  0.20493332075E+03 -0.20480995070E+03  0.34656244194E+03  0.17204018651E+03 0.  0.
        -24    2    3    3    0    0  0.15842720187E+02  0.13388572770E+03 -0.92416049720E+02  0.18199316883E+03  0.80027541440E+02 0.  0.
          6    2    1    2  501    0  0.81011841902E+02 -0.20493332075E+03 -0.72131207575E+03  0.77342001309E+03  0.17125075630E+03 0.  0.
         24    2    5    5    0    0  0.23557571882E+02 -0.10987196166E+03 -0.54800041349E+03  0.56751547838E+03  0.95616723777E+02 0.  0.
          5    1    5    5  501    0  0.57454270021E+02 -0.95061359086E+02 -0.17331166226E+03  0.20590453470E+03  0.47000000000E+01 0. -1.
        -13    1    6    6    0    0 -0.75460458348E+01 -0.82157862079E+02 -0.19053248499E+03  0.20762823735E+03  0.00000000000E+00 0.  1.
         14    1    6    6    0    0  0.31103617717E+02 -0.27714099584E+02 -0.35746792850E+03  0.35988724103E+03  0.00000000000E+00 0. -1.
         -5    1    3    3    0  503 -0.96854562090E+02  0.71047593049E+02 -0.11239390098E+03  0.16456927311E+03  0.47000000000E+01 0.  1.
         11    1    4    4    0    0  0.32958186264E+02  0.14226498825E+02 -0.21933993060E+02  0.42068222712E+02  0.00000000000E+00 0. -1.
        -12    1    4    4    0    0 -0.17115466077E+02  0.11965922888E+03 -0.70482056660E+02  0.13992494612E+03  0.00000000000E+00 0.  1.
</event>
<event>
12    1  0.1596842E-001  0.2057840E+03  0.7818608E-02  0.1145606E+00
         21   -1    0    0  503  502  0.00000000000E+00  0.00000000000E+00  0.12633425187E+02  0.12633425187E+02  0.00000000000E+00 0. -1.
         21   -1    0    0  501  503 -0.00000000000E+00 -0.00000000000E+00 -0.36090100456E+04  0.36090100456E+04  0.00000000000E+00 0.  1.
          6    2    1    2  501    0  0.96672806119E+02 -0.58470441082E+02 -0.23409519690E+04  0.23499793970E+04  0.17199599220E+03 0.  0.
         24    2    3    3    0    0 -0.50739501801E+01  0.13315384609E+02 -0.81130947563E+03  0.81526969981E+03  0.78984642461E+02 0.  0.
         -6    2    1    2    0  502 -0.96672806119E+02  0.58470441082E+02 -0.12554246514E+04  0.12716640737E+04  0.16814885432E+03 0.  0.
        -24    2    5    5    0    0  0.13228591494E+02  0.21498039669E+02 -0.38797247159E+03  0.39648372095E+03  0.77714483395E+02 0.  0.
          5    1    3    3  501    0  0.10174675630E+03 -0.71785825691E+02 -0.15296424934E+04  0.15347096972E+04  0.47000000000E+01 0. -1.
        -13    1    4    4    0    0 -0.43064845409E+01  0.34764132136E+02 -0.73930935917E+03  0.74013878378E+03  0.00000000000E+00 0.  1.
         14    1    4    4    0    0 -0.76746563914E+00 -0.21448747528E+02 -0.72000116455E+02  0.75130916030E+02  0.00000000000E+00 0. -1.
         -5    1    5    5    0  502 -0.10990139761E+03  0.36972401413E+02 -0.86745217978E+03  0.87518035277E+03  0.47000000000E+01 0.  1.
         11    1    6    6    0    0 -0.31585204702E+01 -0.48544066309E+01  0.13333891253E+01  0.59430162256E+01  0.00000000000E+00 0. -1.
        -12    1    6    6    0    0  0.16387111965E+02  0.26352446300E+02 -0.38930586071E+03  0.39054070473E+03  0.00000000000E+00 0.  1.
</event>
<event>
12    1  0.1596842E-001  0.2201325E+03  0.7818608E-02  0.1134204E+00
         21   -1    0    0  503  502  0.00000000000E+00  0.00000000000E+00  0.69557388073E+03  0.69557388073E+03  0.00000000000E+00 0. -1.
         21   -1    0    0  501  503 -0.00000000000E+00 -0.00000000000E+00 -0.70055874723E+02  0.70055874723E+02  0.00000000000E+00 0.  1.
          6    2    1    2  501    0 -0.52838081489E+02 -0.12644199967E+03  0.26642807544E+03  0.34560416712E+03  0.17227558971E+03 0.  0.
         24    2    3    3    0    0  0.53343465947E+01 -0.73677088216E+01  0.14235152267E+03  0.16400075559E+03  0.80929311381E+02 0.  0.
         -6    2    1    2    0  502  0.52838081489E+02  0.12644199967E+03  0.35908993056E+03  0.42002558833E+03  0.16940033791E+03 0.  0.
        -24    2    5    5    0    0  0.32679648982E+02  0.10396835455E+03  0.36458826239E+03  0.38898128484E+03  0.80650236687E+02 0.  0.
          5    1    3    3  501    0 -0.58172428084E+02 -0.11907429085E+03  0.12407655277E+03  0.18160341153E+03  0.47000000000E+01 0. -1.
        -13    1    4    4    0    0 -0.30957356243E+02 -0.61224717310E+01  0.22468075261E+02  0.38738314001E+02  0.00000000000E+00 0.  1.
         14    1    4    4    0    0  0.36291702838E+02 -0.12452370906E+01  0.11988344741E+03  0.12526244159E+03  0.00000000000E+00 0. -1.
         -5    1    5    5    0  502  0.20158432507E+02  0.22473645129E+02 -0.54983318270E+01  0.31044303494E+02  0.47000000000E+01 0.  1.
         11    1    6    6    0    0 -0.44583537622E+01  0.16811115892E+02  0.18607242529E+03  0.18688348774E+03  0.00000000000E+00 0. -1.
        -12    1    6    6    0    0  0.37138002744E+02  0.87157238653E+02  0.17851583710E+03  0.20209779710E+03  0.00000000000E+00 0.  1.
</event>
<event>
12    1  0.1596842E-001  0.1919148E+03  0.7818608E-02  0.1156829E+00
         21   -1    0    0  503  502  0.00000000000E+00  0.00000000000E+00  0.32284916671E+03  0.32284916671E+03  0.00000000000E+00 0. -1.
         21   -1    0    0  501  503 -0.00000000000E+00 -0.00000000000E+00 -0.12488426954E+03  0.12488426954E+03  0.00000000000E+00 0. -1.
          6    2    1    2  501    0  0.77669733736E+02 -0.33703204355E+02  0.32377227773E+02  0.19425651602E+03  0.17181040602E+03 0.  0.
         24    2    3    3    0    0 -0.10522286590E+02 -0.98935509166E+01 -0.24260593066E+02  0.86670899902E+02  0.81943075663E+02 0.  0.
         -6    2    1    2    0  502 -0.77669733736E+02  0.33703204355E+02  0.16558766939E+03  0.25347692023E+03  0.17222885737E+03 0.  0.
        -24    2    5    5    0    0 -0.10544217933E+03  0.39602594231E+02  0.83560035461E+02  0.16654744155E+03  0.89829572579E+02 0.  0.
          5    1    3    3  501    0  0.88192020326E+02 -0.23809653438E+02  0.56637820839E+02  0.10758561612E+03  0.47000000000E+01 0. -1.
        -13    1    4    4    0    0  0.11235351655E+01  0.32504846925E+02 -0.27487496094E+02  0.42583915348E+02  0.00000000000E+00 0.  1.
         14    1    4    4    0    0 -0.11645821755E+02 -0.42398397842E+02  0.32269030279E+01  0.44086984554E+02  0.00000000000E+00 0. -1.
         -5    1    5    5    0  502  0.27772445592E+02 -0.58993898765E+01  0.82027633930E+02  0.86929478678E+02  0.47000000000E+01 0.  1.
         13    1    6    6    0    0 -0.31036540025E+02  0.43776797280E+02 -0.12118654245E+01  0.53676283539E+02  0.00000000000E+00 0. -1.
        -14    1    6    6    0    0 -0.74405639303E+02 -0.41742030486E+01  0.84771900885E+02  0.11287115801E+03  0.00000000000E+00 0.  1.
</event>
<event>
12    1  0.1596842E-001  0.2247710E+03  0.7818608E-02  0.1130438E+00
         21   -1    0    0  503  502  0.00000000000E+00  0.00000000000E+00  0.49707598675E+03  0.49707598675E+03  0.00000000000E+00 0. -1.
         21   -1    0    0  501  503 -0.00000000000E+00 -0.00000000000E+00 -0.10716211472E+03  0.10716211472E+03  0.00000000000E+00 0. -1.
          6    2    1    2  501    0 -0.70921000344E+02  0.12625289239E+03  0.12554619779E+03  0.25745646880E+03  0.17190812785E+03 0.  0.
         24    2    3    3    0    0  0.15287798834E+02  0.37741683838E+02  0.96176572609E+02  0.13037045077E+03  0.78028006660E+02 0.  0.
         -6    2    1    2    0  502  0.70921000344E+02 -0.12625289239E+03  0.26436767424E+03  0.34678163267E+03  0.17145743627E+03 0.  0.
        -24    2    5    5    0    0  0.81888025296E+02 -0.15530309446E+03  0.23170932204E+03  0.30147326870E+03  0.79826198642E+02 0.  0.
          5    1    3    3  501    0 -0.86208799178E+02  0.88511208547E+02  0.29369625185E+02  0.12708601803E+03  0.47000000000E+01 0. -1.
        -11    1    4    4    0    0  0.25062138757E+02  0.57443382158E+02  0.85261854086E+02  0.10581794137E+03  0.00000000000E+00 0.  1.
         12    1    4    4    0    0 -0.97743399230E+01 -0.19701698320E+02  0.10914718523E+02  0.24552509405E+02  0.00000000000E+00 0. -1.
         -5    1    5    5    0  502 -0.10967024952E+02  0.29050202074E+02  0.32658352205E+02  0.45308363969E+02  0.47000000000E+01 0.  1.
         11    1    6    6    0    0  0.41695694760E+02 -0.11268002440E+02  0.56736792872E+02  0.71306118292E+02  0.00000000000E+00 0. -1.
        -12    1    6    6    0    0  0.40192330536E+02 -0.14403509202E+03  0.17497252916E+03  0.23016715041E+03  0.00000000000E+00 0.  1.
</event>
<event>
12    1  0.1596842E-001  0.3108712E+03  0.7818608E-02  0.1080127E+00
         21   -1    0    0  501  502  0.00000000000E+00  0.00000000000E+00  0.27775723401E+03  0.27775723401E+03  0.00000000000E+00 0.  1.
         21   -1    0    0  502  503 -0.00000000000E+00 -0.00000000000E+00 -0.40962294108E+03  0.40962294108E+03  0.00000000000E+00 0. -1.
         -6    2    1    2    0  503 -0.14430490650E+03  0.21308712132E+03  0.69577760107E+02  0.31694749407E+03  0.17141943292E+03 0.  0.
        -24    2    3    3    0    0 -0.16993223005E+02  0.12506210525E+03  0.60798553596E+02  0.16184806572E+03  0.81049567911E+02 0.  0.
          6    2    1    2  501    0  0.14430490650E+03 -0.21308712132E+03 -0.20144346718E+03  0.37043268102E+03  0.17438713653E+03 0.  0.
         24    2    5    5    0    0  0.14232888057E+03 -0.22253648574E+03 -0.14370116896E+03  0.31170059295E+03  0.82019729050E+02 0.  0.
          5    1    5    5  501    0  0.19760259299E+01  0.94493644168E+01 -0.57742298217E+02  0.58732088076E+02  0.47000000000E+01 0. -1.
        -11    1    6    6    0    0  0.72819079067E+02 -0.10795010195E+03 -0.24835564071E+02  0.13256186491E+03  0.00000000000E+00 0.  1.
         12    1    6    6    0    0  0.69509801506E+02 -0.11458638379E+03 -0.11886560489E+03  0.17913872803E+03  0.00000000000E+00 0. -1.
         -5    1    3    3    0  503 -0.12731168350E+03  0.88025016070E+02  0.87792065108E+01  0.15509942835E+03  0.47000000000E+01 0.  1.
         13    1    4    4    0    0  0.21611866757E+02  0.52722923960E+01  0.40097350771E+00  0.22249283844E+02  0.00000000000E+00 0. -1.
        -14    1    4    4    0    0 -0.38605089762E+02  0.11978981286E+03  0.60397580088E+02  0.13959878187E+03  0.00000000000E+00 0.  1.
</event>
<event>
12    1  0.1596842E-001  0.2843043E+03  0.7818608E-02  0.1093724E+00
         21   -1    0    0  501  502  0.00000000000E+00  0.00000000000E+00  0.12968184787E+04  0.12968184787E+04  0.00000000000E+00 0.  1.
         21   -1    0    0  502  503 -0.00000000000E+00 -0.00000000000E+00 -0.64291533042E+02  0.64291533042E+02  0.00000000000E+00 0. -1.
         -6    2    1    2    0  503  0.19016304051E+02  0.22289224275E+03  0.75469325902E+03  0.80646814323E+03  0.17546047742E+03 0.  0.
        -24    2    3    3    0    0 -0.49100273574E+02  0.17499158421E+03  0.47891345348E+03  0.51835196462E+03  0.79358502299E+02 0.  0.
          6    2    1    2  501    0 -0.19016304051E+02 -0.22289224275E+03  0.47783368667E+03  0.55464186854E+03  0.17105554223E+03 0.  0.
         24    2    5    5    0    0 -0.29692542634E+02 -0.32706700164E+02  0.16675093444E+03  0.18984179808E+03  0.79263224991E+02 0.  0.
          5    1    5    5  501    0  0.10676238582E+02 -0.19018554259E+03  0.31108275223E+03  0.36480007047E+03  0.47000000000E+01 0. -1.
        -13    1    6    6    0    0  0.94582974007E+01 -0.10260962790E+02  0.13238308850E+03  0.13311659877E+03  0.00000000000E+00 0.  1.
         14    1    6    6    0    0 -0.39150840034E+02 -0.22445737374E+02  0.34367845940E+02  0.56725199305E+02  0.00000000000E+00 0. -1.
         -5    1    3    3    0  503  0.68116577626E+02  0.47900658537E+02  0.27577980554E+03  0.28811617861E+03  0.47000000000E+01 0.  1.
         11    1    4    4    0    0  0.30790562764E+01  0.10244328211E+01 -0.23176469737E+01  0.39876732129E+01  0.00000000000E+00 0. -1.
        -12    1    4    4    0    0 -0.52179329851E+02  0.17396715139E+03  0.48123110046E+03  0.51436429141E+03  0.00000000000E+00 0.  1.
</event>
<event>
12    1  0.1596842E-001  0.1917579E+03  0.7818608E-02  0.1157636E+00
         21   -1    0    0  503  502  0.00000000000E+00  0.00000000000E+00  0.78823559573E+02  0.78823559573E+02  0.00000000000E+00 0. -1.
         21   -1    0    0  501  503 -0.00000000000E+00 -0.00000000000E+00 -0.86809676896E+03  0.86809676896E+03  0.00000000000E+00 0. -1.
          6    2    1    2  501    0 -0.65006470185E+02 -0.48277226568E+02 -0.71805484787E+03  0.74236439389E+03  0.17013405593E+03 0.  0.
         24    2    3    3    0    0  0.45814681127E+02 -0.16582104001E+02 -0.21455790425E+03  0.22582091014E+03  0.50853102139E+02 0.  0.
         -6    2    1    2    0  502  0.65006470185E+02  0.48277226568E+02 -0.71218361516E+02  0.20455593465E+03  0.17382331147E+03 0.  0.
        -24    2    5    5    0    0  0.91967898438E+01  0.84978457462E+02 -0.92435417100E+01  0.11331631026E+03  0.73818858909E+02 0.  0.
          5    1    3    3  501    0 -0.11082115131E+03 -0.31695122566E+02 -0.50349694362E+03  0.51654348375E+03  0.47000000000E+01 0. -1.
        -11    1    4    4    0    0  0.41485753857E+02  0.16018716344E+01 -0.19241617923E+03  0.19684415103E+03  0.00000000000E+00 0.  1.
         12    1    4    4    0    0  0.43289272697E+01 -0.18183975636E+02 -0.22141725026E+02  0.28976759107E+02  0.00000000000E+00 0. -1.
         -5    1    5    5    0  502  0.55809680341E+02 -0.36701230894E+02 -0.61974819806E+02  0.91239624390E+02  0.47000000000E+01 0.  1.
         13    1    6    6    0    0 -0.23587311934E+01  0.20350896888E+02 -0.36797367017E+02  0.42116135107E+02  0.00000000000E+00 0. -1.
        -14    1    6    6    0    0  0.11555521037E+02  0.64627560573E+02  0.27553825307E+02  0.71200175148E+02  0.00000000000E+00 0.  1.
</event>
<event>
12    1  0.1596842E-001  0.1784020E+03  0.7818608E-02  0.1169576E+00
         21   -1    0    0  501  502  0.00000000000E+00  0.00000000000E+00  0.52451338986E+03  0.52451338986E+03  0.00000000000E+00 0. -1.
         21   -1    0    0  502  503 -0.00000000000E+00 -0.00000000000E+00 -0.62722334324E+02  0.62722334324E+02  0.00000000000E+00 0. -1.
         -6    2    1    2    0  503 -0.20262382354E+02 -0.39615735699E+02  0.17469911415E+03  0.24969389177E+03  0.17276367803E+03 0.  0.
        -24    2    3    3    0    0 -0.20401062386E+02 -0.31862636172E+02  0.20219358513E+03  0.22074279993E+03  0.80085622446E+02 0.  0.
          6    2    1    2  501    0  0.20262382354E+02  0.39615735699E+02  0.28709194138E+03  0.33754183242E+03  0.17185090972E+03 0.  0.
         24    2    5    5    0    0 -0.49117560433E+02  0.34838316306E+02  0.12890123126E+03  0.16467543613E+03  0.82923029477E+02 0.  0.
          5    1    5    5  501    0  0.69379942787E+02  0.47774193931E+01  0.15819071013E+03  0.17286639629E+03  0.47000000000E+01 0. -1.
        -11    1    6    6    0    0  0.59886911400E+01  0.23955577355E+02  0.96967222479E+02  0.10006186258E+03  0.00000000000E+00 0.  1.
         12    1    6    6    0    0 -0.55106251573E+02  0.10882738951E+02  0.31934008778E+02  0.64613573544E+02  0.00000000000E+00 0. -1.
         -5    1    3    3    0  503  0.13868003205E+00 -0.77530995274E+01 -0.27494470975E+02  0.28951091839E+02  0.47000000000E+01 0.  1.
         11    1    4    4    0    0  0.10328214788E+02 -0.40767197162E+02  0.17086670633E+03  0.17596609820E+03  0.00000000000E+00 0. -1.
        -12    1    4    4    0    0 -0.30729277174E+02  0.89045609902E+01  0.31326878801E+02  0.44776701726E+02  0.00000000000E+00 0.  1.
</event>
<event>
12    1  0.1596842E-001  0.2817965E+03  0.7818608E-02  0.1094739E+00
         21   -1    0    0  503  502  0.00000000000E+00  0.00000000000E+00  0.50363779760E+02  0.50363779760E+02  0.00000000000E+00 0. -1.
         21   -1    0    0  501  503 -0.00000000000E+00 -0.00000000000E+00 -0.15938481304E+04  0.15938481304E+04  0.00000000000E+00 0.  1.
          6    2    1    2  501    0  0.90661709909E+02  0.20394291524E+03 -0.86005803438E+03  0.90504645605E+03  0.17203780627E+03 0.  0.
         24    2    3    3    0    0  0.11911898193E+03  0.12221441276E+03 -0.50665599214E+03  0.54117222240E+03  0.83912963186E+02 0.  0.
         -6    2    1    2    0  502 -0.90661709909E+02 -0.20394291524E+03 -0.68342631627E+03  0.73916545413E+03  0.17170259311E+03 0.  0.
        -24    2    5    5    0    0 -0.66934855096E+02 -0.15704263125E+03 -0.32183807718E+03  0.37374686548E+03  0.83452433620E+02 0.  0.
          5    1    3    3  501    0 -0.28457272025E+02  0.81728502477E+02 -0.35340204224E+03  0.36387423364E+03  0.47000000000E+01 0. -1.
        -11    1    4    4    0    0  0.14945447618E+02  0.71965595347E+02 -0.22470861917E+03  0.23642414608E+03  0.00000000000E+00 0.  1.
         12    1    4    4    0    0  0.10417353432E+03  0.50248817412E+02 -0.28194737297E+03  0.30474807633E+03  0.00000000000E+00 0. -1.
         -5    1    5    5    0  502 -0.23726854814E+02 -0.46900283988E+02 -0.36158823909E+03  0.36541858864E+03  0.47000000000E+01 0.  1.
         11    1    6    6    0    0 -0.54890693645E+02 -0.37434811812E+02 -0.82606176693E+02  0.10601006467E+03  0.00000000000E+00 0. -1.
        -12    1    6    6    0    0 -0.12044161450E+02 -0.11960781944E+03 -0.23923190049E+03  0.26773680081E+03  0.00000000000E+00 0.  1.
</event>
<event>
12    1  0.1596842E-001  0.2212183E+03  0.7818608E-02  0.1133154E+00
         21   -1    0    0  501  502  0.00000000000E+00  0.00000000000E+00  0.24337351721E+03  0.24337351721E+03  0.00000000000E+00 0.  1.
         21   -1    0    0  502  503 -0.00000000000E+00 -0.00000000000E+00 -0.27030503851E+03  0.27030503851E+03  0.00000000000E+00 0.  1.
         -6    2    1    2    0  503 -0.12943763764E+03 -0.49726279978E+02  0.11734026210E+03  0.24957270153E+03  0.17114611091E+03 0.  0.
        -24    2    3    3    0    0 -0.64822395614E+02 -0.96028610196E+02  0.63019915026E+02  0.15317858660E+03  0.77902071563E+02 0.  0.
          6    2    1    2  501    0  0.12943763764E+03  0.49726279978E+02 -0.14427178340E+03  0.26410585419E+03  0.17236806482E+03 0.  0.
         24    2    5    5    0    0  0.14333303830E+03  0.68260622008E+02 -0.15674925053E+03  0.23737794406E+03  0.81080752335E+02 0.  0.
          5    1    5    5  501    0 -0.13895400655E+02 -0.18534342030E+02  0.12477467129E+02  0.26727910128E+02  0.47000000000E+01 0. -1.
        -13    1    6    6    0    0  0.88017293897E+02 -0.12223075459E+01 -0.93009433339E+02  0.12805972337E+03  0.00000000000E+00 0.  1.
         14    1    6    6    0    0  0.55315744399E+02  0.69482929554E+02 -0.63739817191E+02  0.10931822068E+03  0.00000000000E+00 0. -1.
         -5    1    3    3    0  503 -0.64615242027E+02  0.46302330217E+02  0.54320347076E+02  0.96394114925E+02  0.47000000000E+01 0.  1.
         11    1    4    4    0    0 -0.39640787374E+02 -0.11010386600E+02 -0.49733305872E+01  0.41440977954E+02  0.00000000000E+00 0. -1.
        -12    1    4    4    0    0 -0.25181608241E+02 -0.85018223596E+02  0.67993245613E+02  0.11173760865E+03  0.00000000000E+00 0.  1.
</event>
<event>
12    1  0.1596842E-001  0.2012468E+03  0.7818608E-02  0.1148723E+00
         21   -1    0    0  503  502  0.00000000000E+00  0.00000000000E+00  0.18695168570E+03  0.18695168570E+03  0.00000000000E+00 0. -1.
         21   -1    0    0  501  503 -0.00000000000E+00 -0.00000000000E+00 -0.22410104050E+03  0.22410104050E+03  0.00000000000E+00 0. -1.
          6    2    1    2  501    0 -0.87739913957E+02  0.58753924847E+02 -0.56501063841E+02  0.20902782034E+03  0.17131825144E+03 0.  0.
         24    2    3    3    0    0 -0.17069753456E+02  0.64867854047E+02  0.16656380078E+02  0.10701922602E+03  0.81709636935E+02 0.  0.
         -6    2    1    2    0  502  0.87739913957E+02 -0.58753924847E+02  0.19351709038E+02  0.20202490586E+03  0.17114104639E+03 0.  0.
        -24    2    5    5    0    0  0.12386363863E+03 -0.56329878064E+02  0.37861776629E+02  0.16109188631E+03  0.77471450020E+02 0.  0.
          5    1    3    3  501    0 -0.70670160502E+02 -0.61139291992E+01 -0.73157443919E+02  0.10200859433E+03  0.47000000000E+01 0. -1.
        -11    1    4    4    0    0 -0.49786114889E+02  0.44203003625E+02  0.58037815240E+01  0.66829983130E+02  0.00000000000E+00 0.  1.
         12    1    4    4    0    0  0.32716361433E+02  0.20664850421E+02  0.10852598554E+02  0.40189242886E+02  0.00000000000E+00 0. -1.
         -5    1    5    5    0  502 -0.36123724674E+02 -0.24240467834E+01 -0.18510067591E+02  0.40933019548E+02  0.47000000000E+01 0.  1.
         13    1    6    6    0    0  0.25808044475E+02  0.19649566661E+02  0.55887507304E+01  0.32914962621E+02  0.00000000000E+00 0. -1.
        -14    1    6    6    0    0  0.98055594156E+02 -0.75979444725E+02  0.32273025898E+02  0.12817692369E+03  0.00000000000E+00 0.  1.
</event>
<event>
12    1  0.1596842E-001  0.2648431E+03  0.7818608E-02  0.1104314E+00
         21   -1    0    0  501  502  0.00000000000E+00  0.00000000000E+00  0.38835209124E+03  0.38835209124E+03  0.00000000000E+00 0. -1.
         21   -1    0    0  502  503 -0.00000000000E+00 -0.00000000000E+00 -0.25117734806E+03  0.25117734806E+03  0.00000000000E+00 0.  1.
         -6    2    1    2    0  503  0.19762866869E+03 -0.37579942846E+02 -0.10112701432E+03  0.28349347020E+03  0.17225716772E+03 0.  0.
        -24    2    3    3    0    0  0.68405123856E+02 -0.99250628110E-01 -0.10449056764E+03  0.14882004922E+03  0.80931189931E+02 0.  0.
          6    2    1    2  501    0 -0.19762866869E+03  0.37579942846E+02  0.23830175751E+03  0.35603596910E+03  0.17176885884E+03 0.  0.
         24    2    5    5    0    0 -0.14968696899E+03  0.20191941320E+02  0.25187891553E+03  0.30305315691E+03  0.74728338980E+02 0.  0.
          5    1    5    5  501    0 -0.47941699700E+02  0.17388001527E+02 -0.13577158022E+02  0.52982812186E+02  0.47000000000E+01 0. -1.
        -13    1    6    6    0    0 -0.13122464644E+03 -0.95046534818E+01  0.17829946065E+03  0.22158732802E+03  0.00000000000E+00 0.  1.
         14    1    6    6    0    0 -0.18462322549E+02  0.29696594801E+02  0.73579454877E+02  0.81465828890E+02  0.00000000000E+00 0. -1.
         -5    1    3    3    0  503  0.12922354483E+03 -0.37480692218E+02  0.33635533207E+01  0.13467342098E+03  0.47000000000E+01 0.  1.
         11    1    4    4    0    0  0.36257702201E+02 -0.44794868527E+01  0.28876445074E+01  0.36647309071E+02  0.00000000000E+00 0. -1.
        -12    1    4    4    0    0  0.32147421656E+02  0.43802362246E+01 -0.10737821215E+03  0.11217274015E+03  0.00000000000E+00 0.  1.
</event>
<event>
12    1  0.1596842E-001  0.3456911E+03  0.7818608E-02  0.1064485E+00
         21   -1    0    0  503  502  0.00000000000E+00  0.00000000000E+00  0.39021445935E+03  0.39021445935E+03  0.00000000000E+00 0.  1.
         21   -1    0    0  501  503 -0.00000000000E+00 -0.00000000000E+00 -0.34275453171E+03  0.34275453171E+03  0.00000000000E+00 0. -1.
          6    2    1    2  501    0 -0.11840930764E+03  0.27454159405E+03 -0.97114121262E+02  0.35826376225E+03  0.17183689881E+03 0.  0.
         24    2    3    3    0    0 -0.13356363047E+03  0.25123430036E+03 -0.12260412517E+03  0.32025437211E+03  0.81075115079E+02 0.  0.
         -6    2    1    2    0  502  0.11840930764E+03 -0.27454159405E+03  0.14457404890E+03  0.37470522882E+03  0.17351801603E+03 0.  0.
        -24    2    5    5    0    0  0.11163946417E+03 -0.11708242582E+03  0.55471899492E+02  0.19359613609E+03  0.90723028379E+02 0.  0.
          5    1    3    3  501    0  0.15154322831E+02  0.23307293685E+02  0.25490003906E+02  0.38009390136E+02  0.47000000000E+01 0. -1.
        -11    1    4    4    0    0 -0.52157847614E+02  0.50783521338E+02 -0.25830871646E+01  0.72842840736E+02  0.00000000000E+00 0.  1.
         12    1    4    4    0    0 -0.81405782860E+02  0.20045077903E+03 -0.12002103800E+03  0.24741153138E+03  0.00000000000E+00 0. -1.
         -5    1    5    5    0  502  0.67698434697E+01 -0.15745916823E+03  0.89102149411E+02  0.18110909273E+03  0.47000000000E+01 0.  1.
         13    1    6    6    0    0 -0.58252492107E+00 -0.25285271687E+02 -0.18014376723E+02  0.31051603313E+02  0.00000000000E+00 0. -1.
        -14    1    6    6    0    0  0.11222198909E+03 -0.91797154137E+02  0.73486276215E+02  0.16254453278E+03  0.00000000000E+00 0.  1.
</event>
<event>
12    1  0.1596842E-001  0.1801644E+03  0.7818608E-02  0.1169137E+00
         21   -1    0    0  501  502  0.00000000000E+00  0.00000000000E+00  0.61807477277E+03  0.61807477277E+03  0.00000000000E+00 0. -1.
         21   -1    0    0  502  503 -0.00000000000E+00 -0.00000000000E+00 -0.73540159957E+02  0.73540159957E+02  0.00000000000E+00 0. -1.
         -6    2    1    2    0  503 -0.66481097739E+01  0.30225504466E+02  0.76620807945E+02  0.19021435854E+03  0.17132710090E+03 0.  0.
        -24    2    3    3    0    0 -0.11037224272E+02  0.33422586675E+02 -0.24041178254E+02  0.89296515093E+02  0.78466551703E+02 0.  0.
          6    2    1    2  501    0  0.66481097739E+01 -0.30225504466E+02  0.46791380487E+03  0.50140057419E+03  0.17748641786E+03 0.  0.
         24    2    5    5    0    0 -0.55301096361E+02 -0.27315661583E+02  0.22083279918E+03  0.24661186820E+03  0.90807112700E+02 0.  0.
          5    1    5    5  501    0  0.61949206135E+02 -0.29098428832E+01  0.24708100569E+03  0.25478870599E+03  0.47000000000E+01 0. -1.
        -13    1    6    6    0    0 -0.37670237069E+02  0.14674325589E+02  0.18298142542E+03  0.18739419586E+03  0.00000000000E+00 0.  1.
         14    1    6    6    0    0 -0.17630859293E+02 -0.41989987172E+02  0.37851373759E+02  0.59217672341E+02  0.00000000000E+00 0. -1.
         -5    1    3    3    0  503  0.43891144983E+01 -0.31970822083E+01  0.10066198620E+03  0.10091784345E+03  0.47000000000E+01 0.  1.
         11    1    4    4    0    0 -0.31262078636E+02  0.46408463894E+02 -0.94603790242E+00  0.55963899698E+02  0.00000000000E+00 0. -1.
        -12    1    4    4    0    0  0.20224854364E+02 -0.12985877219E+02 -0.23095140352E+02  0.33332615395E+02  0.00000000000E+00 0.  1.
</event>
<event>
12    1  0.1596842E-001  0.2429933E+03  0.7818608E-02  0.1117926E+00
         21   -1    0    0  501  502  0.00000000000E+00  0.00000000000E+00  0.95198310344E+02  0.95198310344E+02  0.00000000000E+00 0.  1.
         21   -1    0    0  502  503 -0.00000000000E+00 -0.00000000000E+00 -0.90121698723E+03  0.90121698723E+03  0.00000000000E+00 0. -1.
         -6    2    1    2    0  503 -0.16958418899E+03  0.25206601599E+02 -0.68242979253E+03  0.72440056653E+03  0.17219636798E+03 0.  0.
        -24    2    3    3    0    0 -0.15511929199E+03 -0.30886856867E+02 -0.43061826661E+03  0.46596905934E+03  0.81725638850E+02 0.  0.
          6    2    1    2  501    0  0.16958418899E+03 -0.25206601599E+02 -0.12358888436E+03  0.27201473104E+03  0.17124144255E+03 0.  0.
         24    2    5    5    0    0  0.13906181183E+03  0.18152181077E+02 -0.29915569555E+02  0.16427254130E+03  0.80142606262E+02 0.  0.
          5    1    5    5  501    0  0.30522377166E+02 -0.43358782677E+02 -0.93673314802E+02  0.10774218974E+03  0.47000000000E+01 0. -1.
        -11    1    6    6    0    0  0.12519005413E+03  0.99547201003E+01  0.51409281425E+01  0.12569039441E+03  0.00000000000E+00 0.  1.
         12    1    6    6    0    0  0.13871757698E+02  0.81974609770E+01 -0.35056497698E+02  0.38582146894E+02  0.00000000000E+00 0. -1.
         -5    1    3    3    0  503 -0.14464897006E+02  0.56093458467E+02 -0.25181152592E+03  0.25843150720E+03  0.47000000000E+01 0.  1.
         11    1    4    4    0    0 -0.39323743705E+01 -0.25604592728E+02 -0.48286639753E+02  0.54796517367E+02  0.00000000000E+00 0. -1.
        -12    1    4    4    0    0 -0.15118691761E+03 -0.52822641390E+01 -0.38233162686E+03  0.41117254197E+03  0.00000000000E+00 0.  1.
</event>
<event>
12    1  0.1596842E-001  0.2040239E+03  0.7818608E-02  0.1146394E+00
         21   -1    0    0  501  502  0.00000000000E+00  0.00000000000E+00  0.36188951884E+03  0.36188951884E+03  0.00000000000E+00 0. -1.
         21   -1    0    0  502  503 -0.00000000000E+00 -0.00000000000E+00 -0.43992417527E+03  0.43992417527E+03  0.00000000000E+00 0. -1.
         -6    2    1    2    0  503  0.10020096484E+03  0.45605697131E+02 -0.38355777617E+03  0.43443089576E+03  0.17173678278E+03 0.  0.
        -24    2    3    3    0    0  0.12480619413E+03  0.15554368566E+02 -0.35800405391E+03  0.38770207833E+03  0.79545423781E+02 0.  0.
          6    2    1    2  501    0 -0.10020096484E+03 -0.45605697131E+02  0.30552311974E+03  0.36738279836E+03  0.17177203169E+03 0.  0.
         24    2    5    5    0    0 -0.17743366839E+02 -0.10812810986E+02  0.24727264246E+03  0.26049496698E+03  0.79259852151E+02 0.  0.
          5    1    5    5  501    0 -0.82457598000E+02 -0.34792886145E+02  0.58250477277E+02  0.10688783138E+03  0.47000000000E+01 0. -1.
        -13    1    6    6    0    0  0.26168575225E+02  0.11879199099E+02  0.56061586251E+02  0.62998501201E+02  0.00000000000E+00 0.  1.
         14    1    6    6    0    0 -0.43911942065E+02 -0.22692010085E+02  0.19121105621E+03  0.19749646578E+03  0.00000000000E+00 0. -1.
         -5    1    3    3    0  503 -0.24605229293E+02  0.30051328565E+02 -0.25553722259E+02  0.46728817430E+02  0.47000000000E+01 0.  1.
         11    1    4    4    0    0  0.11558135356E+03  0.32182445530E+02 -0.34330951410E+03  0.36367042987E+03  0.00000000000E+00 0. -1.
        -12    1    4    4    0    0  0.92248405738E+01 -0.16628076964E+02 -0.14694539812E+02  0.24031648454E+02  0.00000000000E+00 0.  1.
</event>
<event>
12    1  0.1596842E-001  0.1979630E+03  0.7818608E-02  0.1152214E+00
         21   -1    0    0  503  502  0.00000000000E+00  0.00000000000E+00  0.26858581698E+03  0.26858581698E+03  0.00000000000E+00 0. -1.
         21   -1    0    0  501  503 -0.00000000000E+00 -0.00000000000E+00 -0.14426010911E+03  0.14426010911E+03  0.00000000000E+00 0. -1.
          6    2    1    2  501    0 -0.25124671638E+02 -0.86153910820E+02  0.78845789284E+02  0.21308687235E+03  0.17645285831E+03 0.  0.
         24    2    3    3    0    0 -0.62914837261E+02 -0.25300633893E+02 -0.77880205994E+00  0.10587967354E+03  0.81311130316E+02 0.  0.
         -6    2    1    2    0  502  0.25124671638E+02  0.86153910820E+02  0.45479918592E+02  0.19975905374E+03  0.17257320499E+03 0.  0.
        -24    2    5    5    0    0 -0.39936816960E+02 -0.97377979403E+01  0.36747310061E+02  0.83455289570E+02  0.62646999153E+02 0.  0.
          5    1    3    3  501    0  0.37790165623E+02 -0.60853276928E+02  0.79624591344E+02  0.10720719881E+03  0.47000000000E+01 0. -1.
        -13    1    4    4    0    0 -0.27601485449E+02  0.33574421517E+01  0.37328492183E+02  0.46546006762E+02  0.00000000000E+00 0.  1.
         14    1    4    4    0    0 -0.35313351812E+02 -0.28658076044E+02 -0.38107294243E+02  0.59333666778E+02  0.00000000000E+00 0. -1.
         -5    1    5    5    0  502  0.65061488598E+02  0.95891708761E+02  0.87326085313E+01  0.11630376417E+03  0.47000000000E+01 0.  1.
         13    1    6    6    0    0 -0.36571049874E+02 -0.53740620979E+01  0.53946188511E+02  0.65395057054E+02  0.00000000000E+00 0. -1.
        -14    1    6    6    0    0 -0.33657670866E+01 -0.43637358425E+01 -0.17198878450E+02  0.18060232516E+02  0.00000000000E+00 0.  1.
</event>
<event>
12    1  0.1596842E-001  0.3258824E+03  0.7818608E-02  0.1072983E+00
         21   -1    0    0  501  502  0.00000000000E+00  0.00000000000E+00  0.85063240116E+03  0.85063240116E+03  0.00000000000E+00 0.  1.
         21   -1    0    0  502  503 -0.00000000000E+00 -0.00000000000E+00 -0.12652112223E+03  0.12652112223E+03  0.00000000000E+00 0. -1.
         -6    2    1    2    0  503  0.27446435543E+03  0.36157274069E+02  0.41883842681E+03  0.53068349882E+03  0.17193404919E+03 0.  0.
        -24    2    3    3    0    0  0.26840472614E+03  0.54255757002E+02  0.42337419947E+03  0.51051080873E+03  0.79942409733E+02 0.  0.
          6    2    1    2  501    0 -0.27446435543E+03 -0.36157274069E+02  0.30527285211E+03  0.44647002457E+03  0.17177292491E+03 0.  0.
         24    2    5    5    0    0 -0.18955440450E+03  0.41498960088E+02  0.18397258176E+03  0.27920964057E+03  0.80368380540E+02 0.  0.
          5    1    5    5  501    0 -0.84909950931E+02 -0.77656234157E+02  0.12130027035E+03  0.16726038401E+03  0.47000000000E+01 0. -1.
        -11    1    6    6    0    0 -0.15441661140E+03  0.10042881529E+01  0.15255635703E+03  0.21706897646E+03  0.00000000000E+00 0.  1.
         12    1    6    6    0    0 -0.35137793101E+02  0.40494671935E+02  0.31416224731E+02  0.62140664106E+02  0.00000000000E+00 0. -1.
         -5    1    3    3    0  503  0.60596292904E+01 -0.18098482932E+02 -0.45357726578E+01  0.20172690083E+02  0.47000000000E+01 0.  1.
         13    1    4    4    0    0  0.14483815290E+03  0.69627512487E+02  0.24277910182E+03  0.29114905686E+03  0.00000000000E+00 0. -1.
        -14    1    4    4    0    0  0.12356657324E+03 -0.15371755485E+02  0.18059509765E+03  0.21936175187E+03  0.00000000000E+00 0.  1.
</event>
<event>
12    1  0.1596842E-001  0.2014628E+03  0.7818608E-02  0.1148618E+00
         21   -1    0    0  503  502  0.00000000000E+00  0.00000000000E+00  0.74457052060E+03  0.74457052060E+03  0.00000000000E+00 0.  1.
         21   -1    0    0  501  503 -0.00000000000E+00 -0.00000000000E+00 -0.76020184847E+02  0.76020184847E+02  0.00000000000E+00 0. -1.
          6    2    1    2  501    0  0.10358453588E+03  0.83416557784E+01  0.11502274110E+03  0.23154056687E+03  0.17199262729E+03 0.  0.
         24    2    3    3    0    0  0.13124482130E+03 -0.31484180868E+02  0.80441614241E+02  0.17179834571E+03  0.69479216500E+02 0.  0.
         -6    2    1    2    0  502 -0.10358453588E+03 -0.83416557784E+01  0.55352759465E+03  0.58905013857E+03  0.17259179709E+03 0.  0.
        -24    2    5    5    0    0 -0.49830112674E+02 -0.13133083657E+02  0.13507656299E+03  0.16710719019E+03  0.83807023147E+02 0.  0.
          5    1    3    3  501    0 -0.27660285418E+02  0.39825836646E+02  0.34581126858E+02  0.59742221157E+02  0.47000000000E+01 0. -1.
        -13    1    4    4    0    0  0.26831645329E+02  0.11311528618E+01 -0.11198338248E+02  0.29096726232E+02  0.00000000000E+00 0.  1.
         14    1    4    4    0    0  0.10441317597E+03 -0.32615333730E+02  0.91639952490E+02  0.14270161948E+03  0.00000000000E+00 0. -1.
         -5    1    5    5    0  502 -0.53754423203E+02  0.47914278785E+01  0.41845103165E+03  0.42194294838E+03  0.47000000000E+01 0.  1.
         11    1    6    6    0    0 -0.34269842460E+02 -0.41852942646E+02  0.42057024605E+02  0.68519225251E+02  0.00000000000E+00 0. -1.
        -12    1    6    6    0    0 -0.15560270214E+02  0.28719858989E+02  0.93019538389E+02  0.98587964943E+02  0.00000000000E+00 0.  1.
</event>
<event>
12    1  0.1596842E-001  0.2040434E+03  0.7818608E-02  0.1146526E+00
         21   -1    0    0  503  502  0.00000000000E+00  0.00000000000E+00  0.11170533087E+04  0.11170533087E+04  0.00000000000E+00 0.  1.
         21   -1    0    0  501  503 -0.00000000000E+00 -0.00000000000E+00 -0.47427409314E+03  0.47427409314E+03  0.00000000000E+00 0.  1.
          6    2    1    2  501    0 -0.83292077914E+02  0.71371445607E+02 -0.44244388728E+03  0.48722714105E+03  0.17205301537E+03 0.  0.
         24    2    3    3    0    0 -0.94848690282E+02  0.76178051297E+02 -0.44921021307E+03  0.47224275209E+03  0.80150058171E+02 0.  0.
         -6    2    1    2    0  502  0.83292077914E+02 -0.71371445607E+02  0.10852231028E+04  0.11041002608E+04  0.17116293247E+03 0.  0.
        -24    2    5    5    0    0  0.29564469704E+02 -0.57870196851E+00  0.82482618535E+03  0.82891502668E+03  0.76729998346E+02 0.  0.
          5    1    3    3  501    0  0.11556612368E+02 -0.48066056899E+01  0.67663257991E+01  0.14984388960E+02  0.47000000000E+01 0. -1.
        -13    1    4    4    0    0 -0.19374389170E+02  0.56924273170E+02 -0.27365673839E+03  0.28018520713E+03  0.00000000000E+00 0.  1.
         14    1    4    4    0    0 -0.75474301112E+02  0.19253778127E+02 -0.17555347469E+03  0.19205754496E+03  0.00000000000E+00 0. -1.
         -5    1    5    5    0  502  0.53727608210E+02 -0.70792743639E+02  0.26039691745E+03  0.27518523408E+03  0.47000000000E+01 0.  1.
         11    1    6    6    0    0 -0.12309145411E+02  0.26159018181E+02  0.19488149322E+03  0.19701422714E+03  0.00000000000E+00 0. -1.
        -12    1    6    6    0    0  0.41873615116E+02 -0.26737720150E+02  0.62994469213E+03  0.63190079954E+03  0.00000000000E+00 0.  1.
</event>
<event>
12    1  0.1596842E-001  0.1899703E+03  0.7818608E-02  0.1158756E+00
         21   -1    0    0  501  502  0.00000000000E+00  0.00000000000E+00  0.55512040801E+03  0.55512040801E+03  0.00000000000E+00 0. -1.
         21   -1    0    0  502  503 -0.00000000000E+00 -0.00000000000E+00 -0.66748718249E+02  0.66748718249E+02  0.00000000000E+00 0. -1.
         -6    2    1    2    0  503 -0.54853612094E+02 -0.55243546356E+02  0.29916254724E+03  0.35374826029E+03  0.17198498136E+03 0.  0.
        -24    2    3    3    0    0 -0.35885301356E+02 -0.97763036470E+02  0.26585748469E+03  0.29631115518E+03  0.79213208289E+02 0.  0.
          6    2    1    2  501    0  0.54853612094E+02  0.55243546356E+02  0.18920914252E+03  0.26812086597E+03  0.17328569179E+03 0.  0.
         24    2    5    5    0    0  0.53511392176E+01  0.34261335569E+02  0.19495959547E+03  0.21384466769E+03  0.80733042968E+02 0.  0.
          5    1    5    5  501    0  0.49502472877E+02  0.20982210787E+02 -0.57504529506E+01  0.54276198279E+02  0.47000000000E+01 0. -1.
        -13    1    6    6    0    0  0.14524878834E+02 -0.19273584479E+02  0.11281028629E+03  0.11536292237E+03  0.00000000000E+00 0.  1.
         14    1    6    6    0    0 -0.91737396166E+01  0.53534920048E+02  0.82149309182E+02  0.98481745325E+02  0.00000000000E+00 0. -1.
         -5    1    3    3    0  503 -0.18968310739E+02  0.42519490113E+02  0.33305062552E+02  0.57437105110E+02  0.47000000000E+01 0.  1.
         11    1    4    4    0    0  0.66331975781E+01 -0.45319601030E+02  0.40779789628E+02  0.61325824819E+02  0.00000000000E+00 0. -1.
        -12    1    4    4    0    0 -0.42518498934E+02 -0.52443435440E+02  0.22507769506E+03  0.23498533036E+03  0.00000000000E+00 0.  1.
</event>
<event>
12    1  0.1596842E-001  0.2147410E+03  0.7818608E-02  0.1138153E+00
         21   -1    0    0  503  502  0.00000000000E+00  0.00000000000E+00  0.59962484156E+03  0.59962484156E+03  0.00000000000E+00 0.  1.
         21   -1    0    0  501  503 -0.00000000000E+00 -0.00000000000E+00 -0.10827503692E+03  0.10827503692E+03  0.00000000000E+00 0.  1.
          6    2    1    2  501    0  0.80346049029E+02 -0.99158509904E+02  0.43840546205E+03  0.48817316769E+03  0.17270146154E+03 0.  0.
         24    2    3    3    0    0  0.10552339935E+03 -0.97001641004E+02  0.43110438183E+03  0.46145338428E+03  0.80893335117E+02 0.  0.
         -6    2    1    2    0  502 -0.80346049029E+02  0.99158509904E+02  0.52944342598E+02  0.21972671079E+03  0.17084737733E+03 0.  0.
        -24    2    5    5    0    0 -0.18000774890E+02  0.10746584400E+03  0.72246038566E+02  0.15376770477E+03  0.80944928312E+02 0.  0.
          5    1    3    3  501    0 -0.25177350325E+02 -0.21568688997E+01  0.73010802181E+01  0.26719783404E+02  0.47000000000E+01 0. -1.
        -11    1    4    4    0    0  0.81330582201E+02 -0.47164778749E+02  0.35551847236E+03  0.36773980495E+03  0.00000000000E+00 0.  1.
         12    1    4    4    0    0  0.24192817152E+02 -0.49836862255E+02  0.75585909466E+02  0.93713579331E+02  0.00000000000E+00 0. -1.
         -5    1    5    5    0  502 -0.62345274139E+02 -0.83073340989E+01 -0.19301695969E+02  0.65959006016E+02  0.47000000000E+01 0.  1.
         11    1    6    6    0    0  0.59238454517E+01  0.10996945753E+03  0.49794938356E+02  0.12086318472E+03  0.00000000000E+00 0. -1.
        -12    1    6    6    0    0 -0.23924620342E+02 -0.25036135321E+01  0.22451100211E+02  0.32904520052E+02  0.00000000000E+00 0.  1.
</event>
<event>
12    1  0.1596842E-001  0.1761731E+03  0.7818608E-02  0.1171907E+00
         21   -1    0    0  501  502  0.00000000000E+00  0.00000000000E+00  0.92669135883E+02  0.92669135883E+02  0.00000000000E+00 0.  1.
         21   -1    0    0  502  503 -0.00000000000E+00 -0.00000000000E+00 -0.56007801365E+03  0.56007801365E+03  0.00000000000E+00 0.  1.
         -6    2    1    2    0  503  0.35317714412E+02  0.14217260512E+02 -0.44240089945E+03  0.47618852363E+03  0.17201012399E+03 0.  0.
        -24    2    3    3    0    0 -0.11150373486E+02 -0.42584032491E+02 -0.15400165624E+03  0.17856143554E+03  0.78930003717E+02 0.  0.
          6    2    1    2  501    0 -0.35317714412E+02 -0.14217260512E+02 -0.25007978323E+02  0.17655862591E+03  0.17058158738E+03 0.  0.
         24    2    5    5    0    0 -0.69445120881E+02 -0.24358630295E+02 -0.62082016383E+02  0.12494369055E+03  0.79629023396E+02 0.  0.
          5    1    5    5  501    0  0.34127406469E+02  0.10141369784E+02  0.37074038060E+02  0.51614935353E+02  0.47000000000E+01 0. -1.
        -11    1    6    6    0    0 -0.56671147906E+01 -0.36266684694E+02 -0.44573916231E+02  0.57742727827E+02  0.00000000000E+00 0.  1.
         12    1    6    6    0    0 -0.63778006091E+02  0.11908054399E+02 -0.17508100152E+02  0.67200962727E+02  0.00000000000E+00 0. -1.
         -5    1    3    3    0  503  0.46468087898E+02  0.56801293002E+02 -0.28839924321E+03  0.29762708809E+03  0.47000000000E+01 0.  1.
         11    1    4    4    0    0  0.52232903338E+01 -0.40564829001E+02 -0.15660669002E+03  0.16185933236E+03  0.00000000000E+00 0. -1.
        -12    1    4    4    0    0 -0.16373663820E+02 -0.20192034901E+01  0.26050337821E+01  0.16702103179E+02  0.00000000000E+00 0.  1.
</event>
<event>
12    1  0.1596842E-001  0.1804613E+03  0.7818608E-02  0.1167536E+00
         21   -1    0    0  501  502  0.00000000000E+00  0.00000000000E+00  0.10362727452E+03  0.10362727452E+03  0.00000000000E+00 0. -1.
         21   -1    0    0  502  503 -0.00000000000E+00 -0.00000000000E+00 -0.10928846413E+04  0.10928846413E+04  0.00000000000E+00 0. -1.
         -6    2    1    2    0  503  0.14821252452E+02  0.50510847006E+02 -0.10003028806E+04  0.10164507601E+04  0.17261309193E+03 0.  0.
        -24    2    3    3    0    0 -0.38925596046E+02  0.11891828210E+02 -0.30685325279E+03  0.31983420223E+03  0.80488387747E+02 0.  0.
          6    2    1    2  501    0 -0.14821252452E+02 -0.50510847006E+02  0.11045513874E+02  0.18006115571E+03  0.17184004548E+03 0.  0.
         24    2    5    5    0    0 -0.16808340892E+02 -0.53302428169E+02 -0.54946601780E+02  0.11381320650E+03  0.82526648756E+02 0.  0.
          5    1    5    5  501    0  0.19870884401E+01  0.27915811631E+01  0.65992115654E+02  0.66247949209E+02  0.47000000000E+01 0. -1.
        -13    1    6    6    0    0 -0.22537510137E+02 -0.42056493441E+01  0.15558259651E+02  0.27707152379E+02  0.00000000000E+00 0.  1.
         14    1    6    6    0    0  0.57291692452E+01 -0.49096778825E+02 -0.70504861432E+02  0.86106054123E+02  0.00000000000E+00 0. -1.
         -5    1    3    3    0  503  0.53746848498E+02  0.38619018796E+02 -0.69344962783E+03  0.69661655785E+03  0.47000000000E+01 0.  1.
         11    1    4    4    0    0 -0.60269499340E+02  0.33154729505E+01 -0.26772885584E+03  0.27444880244E+03  0.00000000000E+00 0. -1.
        -12    1    4    4    0    0  0.21343903294E+02  0.85763552592E+01 -0.39124396957E+02  0.45385399796E+02  0.00000000000E+00 0.  1.
</event>
<event>
12    1  0.1596842E-001  0.1773727E+03  0.7818608E-02  0.1170888E+00
         21   -1    0    0  503  502  0.00000000000E+00  0.00000000000E+00  0.11476773737E+04  0.11476773737E+04  0.00000000000E+00 0. -1.
         21   -1    0    0  501  503 -0.00000000000E+00 -0.00000000000E+00 -0.27094436041E+02  0.27094436041E+02  0.00000000000E+00 0. -1.
          6    2    1    2  501    0 -0.14394617008E+00 -0.34292689471E+02  0.55714899787E+03  0.58470169975E+03  0.17402604001E+03 0.  0.
         24    2    3    3    0    0 -0.24021329444E+02  0.25851419274E+01  0.52091093155E+03  0.52755809704E+03  0.79910199088E+02 0.  0.
         -6    2    1    2    0  502  0.14394617008E+00  0.34292689471E+02  0.56343393976E+03  0.59007010995E+03  0.17189799567E+03 0.  0.
        -24    2    5    5    0    0 -0.15985727993E+02  0.64762110802E+02  0.20321544071E+03  0.22817508500E+03  0.79483832186E+02 0.  0.
          5    1    3    3  501    0  0.23877383274E+02 -0.36877831398E+02  0.36238066316E+02  0.57143602713E+02  0.47000000000E+01 0. -1.
        -11    1    4    4    0    0 -0.25960092683E+02 -0.24003489691E+02  0.45623804914E+03  0.45760600019E+03  0.00000000000E+00 0.  1.
         12    1    4    4    0    0  0.19387632389E+01  0.26588631619E+02  0.64672882412E+02  0.69952096850E+02  0.00000000000E+00 0. -1.
         -5    1    5    5    0  502  0.16129674163E+02 -0.30469421331E+02  0.36021849905E+03  0.36189502495E+03  0.47000000000E+01 0.  1.
         11    1    6    6    0    0 -0.19964304075E+02  0.82767215835E+02  0.17202788560E+03  0.19194420773E+03  0.00000000000E+00 0. -1.
        -12    1    6    6    0    0  0.39785760813E+01 -0.18005105033E+02  0.31187555105E+02  0.36230877278E+02  0.00000000000E+00 0.  1.
</event>
<event>
12    1  0.1596842E-001  0.2453038E+03  0.7818608E-02  0.1116725E+00
         21   -1    0    0  501  502  0.00000000000E+00  0.00000000000E+00  0.66874658900E+03  0.66874658900E+03  0.00000000000E+00 0.  1.
         21   -1    0    0  502  503 -0.00000000000E+00 -0.00000000000E+00 -0.18022353583E+03  0.18022353583E+03  0.00000000000E+00 0.  1.
         -6    2    1    2    0  503 -0.60535172224E+02  0.16045574388E+03 -0.57031100436E+02  0.25184621357E+03  0.17539502858E+03 0.  0.
        -24    2    3    3    0    0  0.25904838314E+02  0.30230030178E+02 -0.47984318126E+02  0.95211140227E+02  0.71956591530E+02 0.  0.
          6    2    1    2  501    0  0.60535172224E+02 -0.16045574388E+03  0.54555415360E+03  0.59712391126E+03  0.17180534937E+03 0.  0.
         24    2    5    5    0    0  0.37418143770E+01 -0.27553501687E+02  0.30437605805E+03  0.31591677186E+03  0.79908856846E+02 0.  0.
          5    1    5    5  501    0  0.56793357847E+02 -0.13290224219E+03  0.24117809555E+03  0.28120713940E+03  0.47000000000E+01 0. -1.
        -11    1    6    6    0    0 -0.13860704385E+02 -0.50149826103E+02  0.23805583919E+03  0.24367541271E+03  0.00000000000E+00 0.  1.
         12    1    6    6    0    0  0.17602518762E+02  0.22596324416E+02  0.66320218856E+02  0.72241359158E+02  0.00000000000E+00 0. -1.
         -5    1    3    3    0  503 -0.86440010537E+02  0.13022571370E+03 -0.90467823092E+01  0.15663507334E+03  0.47000000000E+01 0.  1.
         11    1    4    4    0    0  0.37916957562E+02 -0.10474953615E+02 -0.18079337519E+02  0.43292987529E+02  0.00000000000E+00 0. -1.
        -12    1    4    4    0    0 -0.12012119249E+02  0.40704983794E+02 -0.29904980607E+02  0.51918152698E+02  0.00000000000E+00 0.  1.
</event>
<event>
12    1  0.1596842E-001  0.4066723E+03  0.7818608E-02  0.1041540E+00
         21   -1    0    0  501  502  0.00000000000E+00  0.00000000000E+00  0.51614419659E+03  0.51614419659E+03  0.00000000000E+00 0. -1.
         21   -1    0    0  502  503 -0.00000000000E+00 -0.00000000000E+00 -0.41195207792E+03  0.41195207792E+03  0.00000000000E+00 0.  1.
         -6    2    1    2    0  503 -0.34473153106E+03 -0.13135016281E+03 -0.16719237501E+03  0.43918740747E+03  0.16982224483E+03 0.  0.
        -24    2    3    3    0    0 -0.18851757837E+03 -0.13831871918E+03 -0.12690409796E+03  0.27764300162E+03  0.79435765497E+02 0.  0.
          6    2    1    2  501    0  0.34473153106E+03  0.13135016281E+03  0.27138449368E+03  0.48890886705E+03  0.17114217215E+03 0.  0.
         24    2    5    5    0    0  0.85805083909E+02 -0.36884211613E+01  0.74817306800E+02  0.13685905075E+03  0.75872613636E+02 0.  0.
          5    1    5    5  501    0  0.25892644716E+03  0.13503858397E+03  0.19656718688E+03  0.35204981630E+03  0.47000000000E+01 0. -1.
        -11    1    6    6    0    0  0.80163313308E+02  0.25026443257E+02  0.45838138079E+02  0.95674524118E+02  0.00000000000E+00 0.  1.
         12    1    6    6    0    0  0.56417706007E+01 -0.28714864419E+02  0.28979168720E+02  0.41184526631E+02  0.00000000000E+00 0. -1.
         -5    1    3    3    0  503 -0.15621395269E+03  0.69685563666E+01 -0.40288277049E+02  0.16154440585E+03  0.47000000000E+01 0.  1.
         11    1    4    4    0    0 -0.44668048673E+02 -0.21568660949E+02  0.55306349991E+01  0.49910215697E+02  0.00000000000E+00 0. -1.
        -12    1    4    4    0    0 -0.14384952970E+03 -0.11675005823E+03 -0.13243473296E+03  0.22773278592E+03  0.00000000000E+00 0.  1.
</event>
<event>
12    1  0.1596842E-001  0.1845002E+03  0.7818608E-02  0.1163843E+00
         21   -1    0    0  503  502  0.00000000000E+00  0.00000000000E+00  0.29138750995E+03  0.29138750995E+03  0.00000000000E+00 0. -1.
         21   -1    0    0  501  503 -0.00000000000E+00 -0.00000000000E+00 -0.11076345531E+04  0.11076345531E+04  0.00000000000E+00 0.  1.
          6    2    1    2  501    0  0.31764253571E+02  0.55420262954E+02 -0.10701706296E+04  0.10859583322E+04  0.17308942599E+03 0.  0.
         24    2    3    3    0    0 -0.34169928602E+02  0.67722754196E+02 -0.80444398299E+03  0.81185724062E+03  0.78918324331E+02 0.  0.
         -6    2    1    2    0  502 -0.31764253571E+02 -0.55420262954E+02  0.25392358645E+03  0.31306373088E+03  0.17161392277E+03 0.  0.
        -24    2    5    5    0    0  0.19936045334E+02 -0.81905593399E+02  0.21118418132E+03  0.24079243377E+03  0.79222885503E+02 0.  0.
          5    1    3    3  501    0  0.65934182173E+02 -0.12302491243E+02 -0.26572664663E+03  0.27410109157E+03  0.47000000000E+01 0. -1.
        -11    1    4    4    0    0 -0.42021407968E+02  0.62179719911E+02 -0.38189981125E+03  0.38920377970E+03  0.00000000000E+00 0.  1.
         12    1    4    4    0    0  0.78514793661E+01  0.55430342853E+01 -0.42254417174E+03  0.42265346092E+03  0.00000000000E+00 0. -1.
         -5    1    5    5    0  502 -0.51700298905E+02  0.26485330445E+02  0.42739405122E+02  0.72271297110E+02  0.47000000000E+01 0.  1.
         13    1    6    6    0    0  0.13380575036E+02 -0.45382091378E+02  0.30397480341E+02  0.56236827944E+02  0.00000000000E+00 0. -1.
        -14    1    6    6    0    0  0.65554702974E+01 -0.36523502021E+02  0.18078670098E+03  0.18455560583E+03  0.00000000000E+00 0.  1.
</event>
<event>
12    1  0.1596842E-001  0.1741801E+03  0.7818608E-02  0.1173964E+00
         21   -1    0    0  501  502  0.00000000000E+00  0.00000000000E+00  0.93994423253E+03  0.93994423253E+03  0.00000000000E+00 0.  1.
         21   -1    0    0  502  503 -0.00000000000E+00 -0.00000000000E+00 -0.16708943097E+03  0.16708943097E+03  0.00000000000E+00 0.  1.
         -6    2    1    2    0  503 -0.17144778777E+01  0.20796307564E+01 -0.11164781210E+03  0.20554400892E+03  0.17255677720E+03 0.  0.
        -24    2    3    3    0    0 -0.79014964173E+01 -0.58021507236E+02 -0.30076497345E+02  0.10392513578E+03  0.80417095240E+02 0.  0.
          6    2    1    2  501    0  0.17144778777E+01 -0.20796307564E+01  0.88450261366E+03  0.90148965458E+03  0.17415929330E+03 0.  0.
         24    2    5    5    0    0 -0.61659159086E+01  0.50272039827E+02  0.32404848276E+03  0.33852098683E+03  0.83807773154E+02 0.  0.
          5    1    5    5  501    0  0.78803937862E+01 -0.52351670583E+02  0.56045413090E+03  0.56296866775E+03  0.47000000000E+01 0. -1.
        -11    1    6    6    0    0 -0.13565291437E+02 -0.13664377407E+01  0.23442527769E+03  0.23482141108E+03  0.00000000000E+00 0.  1.
         12    1    6    6    0    0  0.73993755286E+01  0.51638477567E+02  0.89623205071E+02  0.10369957575E+03  0.00000000000E+00 0. -1.
         -5    1    3    3    0  503  0.61870185396E+01  0.60101137993E+02 -0.81571314758E+02  0.10161887314E+03  0.47000000000E+01 0.  1.
         11    1    4    4    0    0 -0.30608355276E+02  0.39763511427E+01 -0.20874733055E+02  0.37261739911E+02  0.00000000000E+00 0. -1.
        -12    1    4    4    0    0  0.22706858859E+02 -0.61997858379E+02 -0.92017642907E+01  0.66663395870E+02  0.00000000000E+00 0.  1.
</event>
<event>
12    1  0.1596842E-001  0.1774212E+03  0.7818608E-02  0.1170379E+00
         21   -1    0    0  503  502  0.00000000000E+00  0.00000000000E+00  0.23943977847E+03  0.23943977847E+03  0.00000000000E+00 0.  1.
         21   -1    0    0  501  503 -0.00000000000E+00 -0.00000000000E+00 -0.24816441611E+03  0.24816441611E+03  0.00000000000E+00 0.  1.
          6    2    1    2  501    0  0.40034179061E+02  0.16812986097E+02 -0.17166886009E+03  0.24671191635E+03  0.17178812576E+03 0.  0.
         24    2    3    3    0    0 -0.10439221495E+02  0.32110073873E+02 -0.37891608610E+02  0.10283694260E+03  0.89440642726E+02 0.  0.
         -6    2    1    2    0  502 -0.40034179061E+02 -0.16812986097E+02  0.16294422245E+03  0.24089227824E+03  0.17202574833E+03 0.  0.
        -24    2    5    5    0    0 -0.30700463300E+02 -0.62568297529E+02  0.47593979306E+02  0.11635940961E+03  0.80106273393E+02 0.  0.
          5    1    3    3  501    0  0.50473400557E+02 -0.15297087776E+02 -0.13377725148E+03  0.14387497375E+03  0.47000000000E+01 0. -1.
        -11    1    4    4    0    0 -0.37271550717E+01  0.42671956514E+02 -0.62184862358E+02  0.75509897789E+02  0.00000000000E+00 0.  1.
         12    1    4    4    0    0 -0.67120664236E+01 -0.10561882641E+02  0.24293253748E+02  0.27327044814E+02  0.00000000000E+00 0. -1.
         -5    1    5    5    0  502 -0.93337157614E+01  0.45755311432E+02  0.11535024314E+03  0.12453286862E+03  0.47000000000E+01 0.  1.
         11    1    6    6    0    0  0.23901447932E+02 -0.39147548914E+02  0.13288215049E+02  0.47753392114E+02  0.00000000000E+00 0. -1.
        -12    1    6    6    0    0 -0.54601911232E+02 -0.23420748615E+02  0.34305764257E+02  0.68606017499E+02  0.00000000000E+00 0.  1.
</event>
<event>
12    1  0.1596842E-001  0.1973740E+03  0.7818608E-02  0.1152008E+00
         21   -1    0    0  501  502  0.00000000000E+00  0.00000000000E+00  0.95241628167E+03  0.95241628167E+03  0.00000000000E+00 0. -1.
         21   -1    0    0  502  503 -0.00000000000E+00 -0.00000000000E+00 -0.12748868680E+03  0.12748868680E+03  0.00000000000E+00 0. -1.
         -6    2    1    2    0  503 -0.82270530017E+02 -0.49054157279E+02 -0.32657135599E+02  0.19990038068E+03  0.17239177252E+03 0.  0.
        -24    2    3    3    0    0 -0.28823651432E+02  0.13586489567E+02 -0.69378208249E+02  0.10961778742E+03  0.78659570042E+02 0.  0.
          6    2    1    2  501    0  0.82270530017E+02  0.49054157279E+02  0.85758473047E+03  0.88000458779E+03  0.17257390925E+03 0.  0.
         24    2    5    5    0    0  0.25435854747E+02  0.63845874287E+02  0.27336581179E+03  0.29282249496E+03  0.79327600043E+02 0.  0.
          5    1    5    5  501    0  0.56834675270E+02 -0.14791717008E+02  0.58421891868E+03  0.58718209283E+03  0.47000000000E+01 0. -1.
        -13    1    6    6    0    0 -0.25442315396E+02  0.59598787529E+01  0.48121029610E+02  0.54758241920E+02  0.00000000000E+00 0.  1.
         14    1    6    6    0    0  0.50878170143E+02  0.57885995534E+02  0.22524478218E+03  0.23806425304E+03  0.00000000000E+00 0. -1.
         -5    1    3    3    0  503 -0.53446878585E+02 -0.62640646846E+02  0.36721072650E+02  0.90282593252E+02  0.47000000000E+01 0.  1.
         13    1    4    4    0    0 -0.26753785589E+02 -0.23715804193E+02 -0.61950785575E+02  0.71526947686E+02  0.00000000000E+00 0. -1.
        -14    1    4    4    0    0 -0.20698658434E+01  0.37302293760E+02 -0.74274226736E+01  0.38090839738E+02  0.00000000000E+00 0.  1.
</event>
<event>
12    1  0.1596842E-001  0.1828446E+03  0.7818608E-02  0.1168234E+00
         21   -1    0    0  503  502  0.00000000000E+00  0.00000000000E+00  0.95719361131E+03  0.95719361131E+03  0.00000000000E+00 0.  1.
         21   -1    0    0  501  503 -0.00000000000E+00 -0.00000000000E+00 -0.74659624030E+02  0.74659624030E+02  0.00000000000E+00 0.  1.
          6    2    1    2  501    0  0.55948728145E+02  0.45491419209E+02  0.46813628784E+02  0.17636467475E+03  0.15399108175E+03 0.  0.
         24    2    3    3    0    0  0.81922874284E+02  0.20512267123E+01  0.16890728062E+02  0.11738012949E+03  0.82323953036E+02 0.  0.
         -6    2    1    2    0  502 -0.55948728145E+02 -0.45491419209E+02  0.83572035849E+03  0.85548856058E+03  0.16802508827E+03 0.  0.
        -24    2    5    5    0    0 -0.49303404869E+02 -0.63900059089E+02  0.34043026166E+03  0.35978965160E+03  0.83915356545E+02 0.  0.
          5    1    3    3  501    0 -0.25974146139E+02  0.43440192497E+02  0.29922900722E+02  0.58984545259E+02  0.47000000000E+01 0. -1.
        -11    1    4    4    0    0 -0.34922973242E+01 -0.23365343847E+02 -0.78467849388E+01  0.24893924310E+02  0.00000000000E+00 0.  1.
         12    1    4    4    0    0  0.85415171608E+02  0.25416570559E+02  0.24737513001E+02  0.92486205184E+02  0.00000000000E+00 0. -1.
         -5    1    5    5    0  502 -0.66453232762E+01  0.18408639880E+02  0.49529009684E+03  0.49569890898E+03  0.47000000000E+01 0.  1.
         13    1    6    6    0    0 -0.24665301880E+01 -0.61264530602E+02  0.25561266879E+03  0.26286358235E+03  0.00000000000E+00 0. -1.
        -14    1    6    6    0    0 -0.46836874681E+02 -0.26355284873E+01  0.84817592865E+02  0.96926069247E+02  0.00000000000E+00 0.  1.
</event>
<event>
12    1  0.1596842E-001  0.1847817E+03  0.7818608E-02  0.1163833E+00
         21   -1    0    0  501  502  0.00000000000E+00  0.00000000000E+00  0.83524125711E+02  0.83524125711E+02  0.00000000000E+00 0.  1.
         21   -1    0    0  502  503 -0.00000000000E+00 -0.00000000000E+00 -0.44365278036E+03  0.44365278036E+03  0.00000000000E+00 0.  1.
         -6    2    1    2    0  503 -0.64407629062E+02 -0.22836080391E+02 -0.26057742429E+03  0.31944460207E+03  0.17168118853E+03 0.  0.
        -24    2    3    3    0    0 -0.50567917618E+02 -0.44252168756E+02 -0.65149750749E+02  0.12230441835E+03  0.78730629322E+02 0.  0.
          6    2    1    2  501    0  0.64407629062E+02  0.22836080391E+02 -0.99551230361E+02  0.20773230400E+03  0.16903382327E+03 0.  0.
         24    2    5    5    0    0  0.71414394520E+02 -0.37881818544E+02 -0.88819254167E+02  0.14549868506E+03  0.82133790378E+02 0.  0.
          5    1    5    5  501    0 -0.70067654585E+01  0.60717898935E+02 -0.10731976194E+02  0.62233618940E+02  0.47000000000E+01 0. -1.
        -11    1    6    6    0    0 -0.52562228065E+01 -0.12676488805E+02  0.10675091756E+02  0.17386167796E+02  0.00000000000E+00 0.  1.
         12    1    6    6    0    0  0.76670617326E+02 -0.25205329739E+02 -0.99494345923E+02  0.12811251726E+03  0.00000000000E+00 0. -1.
         -5    1    3    3    0  503 -0.13839711443E+02  0.21416088365E+02 -0.19542767354E+03  0.19714018372E+03  0.47000000000E+01 0.  1.
         11    1    4    4    0    0 -0.55850363208E+01 -0.10632304139E+02 -0.65046580400E+02  0.66146021375E+02  0.00000000000E+00 0. -1.
        -12    1    4    4    0    0 -0.44982881298E+02 -0.33619864617E+02 -0.10317034897E+00  0.56158396975E+02  0.00000000000E+00 0.  1.
</event>
<event>
12    1  0.1596842E-001  0.2042579E+03  0.7818608E-02  0.1146609E+00
         21   -1    0    0  503  502  0.00000000000E+00  0.00000000000E+00  0.37554794626E+03  0.37554794626E+03  0.00000000000E+00 0. -1.
         21   -1    0    0  501  503 -0.00000000000E+00 -0.00000000000E+00 -0.21532529329E+03  0.21532529329E+03  0.00000000000E+00 0.  1.
          6    2    1    2  501    0  0.96616221374E+02  0.49451503288E+02 -0.12630332389E+03  0.24015370689E+03  0.17303504817E+03 0.  0.
         24    2    3    3    0    0  0.37849940131E+02 -0.40230666653E+02 -0.54483037078E+02  0.11101575346E+03  0.79403851800E+02 0.  0.
         -6    2    1    2    0  502 -0.96616221374E+02 -0.49451503288E+02  0.28652597686E+03  0.35071953267E+03  0.17066607679E+03 0.  0.
        -24    2    5    5    0    0  0.24995872474E+01 -0.56794312124E+02  0.17752775030E+03  0.20313713618E+03  0.80726402998E+02 0.  0.
          5    1    3    3  501    0  0.58766281243E+02  0.89682169941E+02 -0.71820286813E+02  0.12913795342E+03  0.47000000000E+01 0. -1.
        -11    1    4    4    0    0  0.26674313078E+02  0.21199703550E+02 -0.22811739987E+02  0.41003925300E+02  0.00000000000E+00 0.  1.
         12    1    4    4    0    0  0.11175627053E+02 -0.61430370204E+02 -0.31671297092E+02  0.70011828164E+02  0.00000000000E+00 0. -1.
         -5    1    5    5    0  502 -0.99115808621E+02  0.73428088358E+01  0.10899822656E+03  0.14758239649E+03  0.47000000000E+01 0.  1.
         13    1    6    6    0    0  0.89317647301E+01 -0.40835016524E+02  0.18084546277E+03  0.18561345964E+03  0.00000000000E+00 0. -1.
        -14    1    6    6    0    0 -0.64321774827E+01 -0.15959295599E+02 -0.33177124706E+01  0.17523676533E+02  0.00000000000E+00 0.  1.
</event>
<event>
12    1  0.1596842E-001  0.2623251E+03  0.7818608E-02  0.1105871E+00
         21   -1    0    0  501  502  0.00000000000E+00  0.00000000000E+00  0.26001745639E+04  0.26001745639E+04  0.00000000000E+00 0.  1.
         21   -1    0    0  502  503 -0.00000000000E+00 -0.00000000000E+00 -0.97752117964E+02  0.97752117964E+02  0.00000000000E+00 0.  1.
         -6    2    1    2    0  503  0.16943866745E+03 -0.10078524156E+03  0.99107845688E+02  0.28042261892E+03  0.17305303575E+03 0.  0.
        -24    2    3    3    0    0  0.11875527802E+03 -0.13886062519E+03  0.73356515102E+02  0.21183864244E+03  0.78162285273E+02 0.  0.
          6    2    1    2  501    0 -0.16943866745E+03  0.10078524156E+03  0.24033146003E+04  0.24175040630E+04  0.17186535317E+03 0.  0.
         24    2    5    5    0    0 -0.98468792139E+02  0.12815528046E+03  0.18878718928E+04  0.18964578876E+04  0.79827042223E+02 0.  0.
          5    1    5    5  501    0 -0.70969875316E+02 -0.27370038907E+02  0.51544270744E+03  0.52104617538E+03  0.47000000000E+01 0. -1.
        -13    1    6    6    0    0 -0.89445857814E+02  0.12999294681E+03  0.14627557539E+04  0.14712420342E+04  0.00000000000E+00 0.  1.
         14    1    6    6    0    0 -0.90229343246E+01 -0.18376663471E+01  0.42511613898E+03  0.42521585340E+03  0.00000000000E+00 0. -1.
         -5    1    3    3    0  503  0.50683389435E+02  0.38075383630E+02  0.25751330586E+02  0.68583976482E+02  0.47000000000E+01 0.  1.
         13    1    4    4    0    0  0.66188053464E+02 -0.24527763616E+02  0.42057050453E+02  0.82166082432E+02  0.00000000000E+00 0. -1.
        -14    1    4    4    0    0  0.52567224555E+02 -0.11433286157E+03  0.31299464649E+02  0.12967256001E+03  0.00000000000E+00 0.  1.
</event>
<event>
12    1  0.1596842E-001  0.1943335E+03  0.7818608E-02  0.1154799E+00
         21   -1    0    0  501  502  0.00000000000E+00  0.00000000000E+00  0.67299588895E+03  0.67299588895E+03  0.00000000000E+00 0.  1.
         21   -1    0    0  502  503 -0.00000000000E+00 -0.00000000000E+00 -0.34130127985E+03  0.34130127985E+03  0.00000000000E+00 0.  1.
         -6    2    1    2    0  503 -0.78510054746E+02 -0.39987823388E+02 -0.29800031892E+03  0.35529701562E+03  0.17224669666E+03 0.  0.
        -24    2    3    3    0    0  0.21366337839E+02 -0.41683848236E+02 -0.14440845123E+03  0.17201929707E+03  0.80887416694E+02 0.  0.
          6    2    1    2  501    0  0.78510054746E+02  0.39987823388E+02  0.62969492803E+03  0.65900015318E+03  0.17321271544E+03 0.  0.
         24    2    5    5    0    0  0.52062912530E+02  0.93514760630E+02  0.45774865528E+03  0.47692271071E+03  0.80410716137E+02 0.  0.
          5    1    5    5  501    0  0.26447142217E+02 -0.53526937242E+02  0.17194627275E+03  0.18207744247E+03  0.47000000000E+01 0. -1.
        -11    1    6    6    0    0  0.35750478180E+02  0.63808284484E+01  0.22408298322E+03  0.22700659689E+03  0.00000000000E+00 0.  1.
         12    1    6    6    0    0  0.16312434350E+02  0.87133932181E+02  0.23366567205E+03  0.24991611382E+03  0.00000000000E+00 0. -1.
         -5    1    3    3    0  503 -0.99876392585E+02  0.16960248474E+01 -0.15359186769E+03  0.18327771855E+03  0.47000000000E+01 0.  1.
         11    1    4    4    0    0 -0.10182877229E+02 -0.86744175571E+00  0.67849995118E+01  0.12267015213E+02  0.00000000000E+00 0. -1.
        -12    1    4    4    0    0  0.31549215068E+02 -0.40816406480E+02 -0.15119345075E+03  0.15975228185E+03  0.00000000000E+00 0.  1.
</event>
<event>
12    1  0.1596842E-001  0.1923682E+03  0.7818608E-02  0.1156412E+00
         21   -1    0    0  503  502  0.00000000000E+00  0.00000000000E+00  0.10880210669E+04  0.10880210669E+04  0.00000000000E+00 0. -1.
         21   -1    0    0  501  503 -0.00000000000E+00 -0.00000000000E+00 -0.29133320909E+03  0.29133320909E+03  0.00000000000E+00 0.  1.
          6    2    1    2  501    0  0.65780146840E+02 -0.55735256117E+02 -0.24993310130E+03  0.31520157441E+03  0.17161594008E+03 0.  0.
         24    2    3    3    0    0  0.24364550988E+02 -0.92590796771E+02 -0.21686133775E+03  0.25047589171E+03  0.80886621408E+02 0.  0.
         -6    2    1    2    0  502 -0.65780146840E+02  0.55735256117E+02  0.10466209591E+04  0.10641527016E+04  0.17196538532E+03 0.  0.
        -24    2    5    5    0    0 -0.99879374761E+02  0.67293798346E+02  0.95122796862E+03  0.96208277517E+03  0.79147161638E+02 0.  0.
          5    1    3    3  501    0  0.41415595852E+02  0.36855540655E+02 -0.33071763551E+02  0.64725682701E+02  0.47000000000E+01 0. -1.
        -11    1    4    4    0    0  0.26010878046E+02  0.59881977120E+01 -0.43275075732E+02  0.50844433994E+02  0.00000000000E+00 0.  1.
         12    1    4    4    0    0 -0.16463270581E+01 -0.98578994483E+02 -0.17358626202E+03  0.19963145771E+03  0.00000000000E+00 0. -1.
         -5    1    5    5    0  502  0.34099227921E+02 -0.11558542230E+02  0.95392990467E+02  0.10206992639E+03  0.47000000000E+01 0.  1.
         13    1    6    6    0    0 -0.32263746619E+02 -0.64198475750E+01  0.43571013776E+03  0.43695021219E+03  0.00000000000E+00 0. -1.
        -14    1    6    6    0    0 -0.67615628142E+02  0.73713645922E+02  0.51551783086E+03  0.52513256298E+03  0.00000000000E+00 0.  1.
</event>
<event>
12    1  0.1596842E-001  0.2481647E+03  0.7818608E-02  0.1114529E+00
         21   -1    0    0  503  502  0.00000000000E+00  0.00000000000E+00  0.10796210892E+04  0.10796210892E+04  0.00000000000E+00 0. -1.
         21   -1    0    0  501  503 -0.00000000000E+00 -0.00000000000E+00 -0.64150114691E+02  0.64150114691E+02  0.00000000000E+00 0. -1.
          6    2    1    2  501    0 -0.52406266220E+02 -0.17091376327E+03  0.31660252596E+03  0.40227211367E+03  0.17212717038E+03 0.  0.
         24    2    3    3    0    0 -0.17259328160E+02 -0.12006779897E+03  0.98783241256E+02  0.17580368292E+03  0.80216241601E+02 0.  0.
         -6    2    1    2    0  502  0.52406266220E+02  0.17091376327E+03  0.69886844856E+03  0.74149909023E+03  0.17159796386E+03 0.  0.
        -24    2    5    5    0    0  0.27753222692E+01  0.17868016871E+03  0.58077662142E+03  0.61308056630E+03  0.81437041210E+02 0.  0.
          5    1    3    3  501    0 -0.35146938060E+02 -0.50845964291E+02  0.21781928470E+03  0.22646843075E+03  0.47000000000E+01 0. -1.
        -13    1    4    4    0    0 -0.17082226787E+02 -0.16750526331E+02  0.61458446678E+02  0.65950915630E+02  0.00000000000E+00 0.  1.
         14    1    4    4    0    0 -0.17710137292E+00 -0.10331727264E+03  0.37324794579E+02  0.10985276729E+03  0.00000000000E+00 0. -1.
         -5    1    5    5    0  502  0.49630943951E+02 -0.77664054400E+01  0.11809182714E+03  0.12841852393E+03  0.47000000000E+01 0.  1.
         11    1    6    6    0    0  0.25361891009E+02  0.63011112419E+02  0.12443568908E+03  0.14176694438E+03  0.00000000000E+00 0. -1.
        -12    1    6    6    0    0 -0.22586568739E+02  0.11566905629E+03  0.45634093234E+03  0.47131362191E+03  0.00000000000E+00 0.  1.
</event>
<event>
12    1  0.1596842E-001  0.2180475E+03  0.7818608E-02  0.1135363E+00
         21   -1    0    0  503  502  0.00000000000E+00  0.00000000000E+00  0.12982634279E+04  0.12982634279E+04  0.00000000000E+00 0. -1.
         21   -1    0    0  501  503 -0.00000000000E+00 -0.00000000000E+00 -0.37607899804E+02  0.37607899804E+02  0.00000000000E+00 0. -1.
          6    2    1    2  501    0 -0.43537997128E+02 -0.12700109186E+03  0.52129737091E+03  0.56503074886E+03  0.17170895059E+03 0.  0.
         24    2    3    3    0    0 -0.14719433513E+02 -0.15549256552E+03  0.44689546000E+03  0.48017788782E+03  0.80378181914E+02 0.  0.
         -6    2    1    2    0  502  0.43537997128E+02  0.12700109186E+03  0.73935815724E+03  0.77084057890E+03  0.17181350025E+03 0.  0.
        -24    2    5    5    0    0  0.24589588772E+02  0.44955518784E+02  0.16421950083E+03  0.18955142337E+03  0.79599315966E+02 0.  0.
          5    1    3    3  501    0 -0.28818563614E+02  0.28491473655E+02  0.74401910906E+02  0.84852861037E+02  0.47000000000E+01 0. -1.
        -13    1    4    4    0    0  0.31578402376E+02 -0.50826989728E+02  0.12607156148E+03  0.13955148511E+03  0.00000000000E+00 0.  1.
         14    1    4    4    0    0 -0.46297835890E+02 -0.10466557579E+03  0.32082389852E+03  0.34062640271E+03  0.00000000000E+00 0. -1.
         -5    1    5    5    0  502  0.18948408355E+02  0.82045573080E+02  0.57513865640E+03  0.58128915553E+03  0.47000000000E+01 0.  1.
         13    1    6    6    0    0  0.13368991289E+02  0.36167600582E+02  0.16989115872E+03  0.17421202907E+03  0.00000000000E+00 0. -1.
        -14    1    6    6    0    0  0.11220597484E+02  0.87879182018E+01 -0.56716578917E+01  0.15339394299E+02  0.00000000000E+00 0.  1.
</event>
<event>
12    1  0.1596842E-001  0.2196222E+03  0.7818608E-02  0.1134646E+00
         21   -1    0    0  501  502  0.00000000000E+00  0.00000000000E+00  0.59695870236E+03  0.59695870236E+03  0.00000000000E+00 0. -1.
         21   -1    0    0  502  503 -0.00000000000E+00 -0.00000000000E+00 -0.84472317929E+02  0.84472317929E+02  0.00000000000E+00 0.  1.
         -6    2    1    2    0  503  0.72229157505E+02  0.11186427104E+03  0.17805389873E+03  0.28273152920E+03  0.17465182627E+03 0.  0.
        -24    2    3    3    0    0  0.66535274225E+02  0.39758622784E+02  0.17608494785E+03  0.21022213957E+03  0.84733395428E+02 0.  0.
          6    2    1    2  501    0 -0.72229157505E+02 -0.11186427104E+03  0.33443248571E+03  0.39869949110E+03  0.17142208252E+03 0.  0.
         24    2    5    5    0    0 -0.31868498751E+02 -0.85220451920E+02  0.82366074910E+02  0.14199257392E+03  0.71411442464E+02 0.  0.
          5    1    5    5  501    0 -0.40360658753E+02 -0.26643819122E+02  0.25206641080E+03  0.25670691717E+03  0.47000000000E+01 0. -1.
        -13    1    6    6    0    0 -0.12967287221E+02  0.11271417379E+02  0.97093946300E+01  0.19734936830E+02  0.00000000000E+00 0.  1.
         14    1    6    6    0    0 -0.18901211530E+02 -0.96491869298E+02  0.72656680280E+02  0.12225763709E+03  0.00000000000E+00 0. -1.
         -5    1    3    3    0  503  0.56938832792E+01  0.72105648257E+02  0.19689508745E+01  0.72509389633E+02  0.47000000000E+01 0.  1.
         11    1    4    4    0    0  0.40066703350E+02 -0.17296178978E+02  0.35666762322E+02  0.56361480278E+02  0.00000000000E+00 0. -1.
        -12    1    4    4    0    0  0.26468570875E+02  0.57054801763E+02  0.14041818553E+03  0.15386065929E+03  0.00000000000E+00 0.  1.
</event>
<event>
12    1  0.1596842E-001  0.1920634E+03  0.7818608E-02  0.1157334E+00
         21   -1    0    0  501  502  0.00000000000E+00  0.00000000000E+00  0.18463847262E+03  0.18463847262E+03  0.00000000000E+00 0.  1.
         21   -1    0    0  502  503 -0.00000000000E+00 -0.00000000000E+00 -0.90107587199E+03  0.90107587199E+03  0.00000000000E+00 0.  1.
         -6    2    1    2    0  503 -0.67634007898E+02 -0.45441871003E+02 -0.83760055365E+03  0.85862655484E+03  0.17036886612E+03 0.  0.
        -24    2    3    3    0    0 -0.99681626795E+02 -0.57520536976E+02 -0.50368964416E+03  0.52293096428E+03  0.80675255640E+02 0.  0.
          6    2    1    2  501    0  0.67634007898E+02  0.45441871003E+02  0.12116315427E+03  0.22708778977E+03  0.17392248746E+03 0.  0.
         24    2    5    5    0    0  0.64112721764E+02  0.18773982805E+02  0.15261213699E+03  0.18543800909E+03  0.81448679150E+02 0.  0.
          5    1    5    5  501    0  0.35212861336E+01  0.26667888198E+02 -0.31448982714E+02  0.41649780680E+02  0.47000000000E+01 0. -1.
        -11    1    6    6    0    0  0.68674658464E+02  0.16788869080E+02  0.60095300026E+02  0.92787498756E+02  0.00000000000E+00 0.  1.
         12    1    6    6    0    0 -0.45619366997E+01  0.19851137251E+01  0.92516836963E+02  0.92650510331E+02  0.00000000000E+00 0. -1.
         -5    1    3    3    0  503  0.32047618897E+02  0.12078665973E+02 -0.33391090949E+03  0.33569559056E+03  0.47000000000E+01 0.  1.
         13    1    4    4    0    0 -0.99869604185E+02 -0.38817862375E+02 -0.48421891288E+03  0.49593217265E+03  0.00000000000E+00 0. -1.
        -14    1    4    4    0    0  0.18797739011E+00 -0.18702674601E+02 -0.19470731277E+02  0.26998791624E+02  0.00000000000E+00 0.  1.
</event>
<event>
12    1  0.1596842E-001  0.1922680E+03  0.7818608E-02  0.1156447E+00
         21   -1    0    0  503  502  0.00000000000E+00  0.00000000000E+00  0.21434616028E+04  0.21434616028E+04  0.00000000000E+00 0. -1.
         21   -1    0    0  501  503 -0.00000000000E+00 -0.00000000000E+00 -0.48353927089E+02  0.48353927089E+02  0.00000000000E+00 0. -1.
          6    2    1    2  501    0 -0.79233705445E+02 -0.30774295404E+02  0.16852889862E+03  0.25567355270E+03  0.17245851253E+03 0.  0.
         24    2    3    3    0    0 -0.32919149763E+02  0.32016275584E+02  0.14907481842E+03  0.17512390894E+03  0.79601317023E+02 0.  0.
         -6    2    1    2    0  502  0.79233705445E+02  0.30774295404E+02  0.19265787771E+04  0.19361419771E+04  0.17238020234E+03 0.  0.
        -24    2    5    5    0    0  0.91518183834E+01  0.58787835182E+02  0.67469852631E+03  0.68197991365E+03  0.79616178520E+02 0.  0.
          5    1    3    3  501    0 -0.46314555682E+02 -0.62790570988E+02  0.19454080195E+02  0.80549643756E+02  0.47000000000E+01 0. -1.
        -11    1    4    4    0    0  0.80508516628E+01  0.99890558861E+01 -0.53090057439E+01  0.13884631503E+02  0.00000000000E+00 0.  1.
         12    1    4    4    0    0 -0.40970001426E+02  0.22027219698E+02  0.15438382417E+03  0.16123927744E+03  0.00000000000E+00 0. -1.
         -5    1    5    5    0  502  0.70081887061E+02 -0.28013539778E+02  0.12518802507E+04  0.12541620635E+04  0.47000000000E+01 0.  1.
         13    1    6    6    0    0  0.23040288164E+02  0.26589165051E+02  0.57885016499E+03  0.57991840123E+03  0.00000000000E+00 0. -1.
        -14    1    6    6    0    0 -0.13888469781E+02  0.32198670131E+02  0.95848361314E+02  0.10206151242E+03  0.00000000000E+00 0.  1.
</event>
<event>
12    1  0.1596842E-001  0.1840316E+03  0.7818608E-02  0.1164463E+00
         21   -1    0    0  501  502  0.00000000000E+00  0.00000000000E+00  0.10814280989E+03  0.10814280989E+03  0.00000000000E+00 0.  1.
         21   -1    0    0  502  503 -0.00000000000E+00 -0.00000000000E+00 -0.51402200234E+03  0.51402200234E+03  0.00000000000E+00 0. -1.
         -6    2    1    2    0  503  0.63217029281E+02 -0.75157622339E+00 -0.39985352141E+03  0.44017095334E+03  0.17283133953E+03 0.  0.
        -24    2    3    3    0    0  0.56940067739E+01  0.26730072451E+02 -0.86281663797E+02  0.12014979933E+03  0.79022340410E+02 0.  0.
          6    2    1    2  501    0 -0.63217029281E+02  0.75157622339E+00 -0.60256710478E+01  0.18199385890E+03  0.17055350570E+03 0.  0.
         24    2    5    5    0    0 -0.48402650329E+02 -0.43068376655E+02  0.45380318165E+02  0.11268065798E+03  0.80248712015E+02 0.  0.
          5    1    5    5  501    0 -0.14814378953E+02  0.43819952879E+02 -0.51405989213E+02  0.69313200915E+02  0.47000000000E+01 0. -1.
        -11    1    6    6    0    0 -0.65516907726E+02 -0.15067426673E+02  0.17120768341E+02  0.69373000894E+02  0.00000000000E+00 0.  1.
         12    1    6    6    0    0  0.17114257397E+02 -0.28000949983E+02  0.28259549824E+02  0.43307657088E+02  0.00000000000E+00 0. -1.
         -5    1    3    3    0  503  0.57523022507E+02 -0.27481648674E+02 -0.31357185761E+03  0.32002115401E+03  0.47000000000E+01 0.  1.
         13    1    4    4    0    0 -0.32981216816E+02  0.17232083595E+02 -0.65244879707E+02  0.75110583114E+02  0.00000000000E+00 0. -1.
        -14    1    4    4    0    0  0.38675223590E+02  0.94979888561E+01 -0.21036784090E+02  0.45039216211E+02  0.00000000000E+00 0.  1.
</event>
<event>
12    1  0.1596842E-001  0.1981404E+03  0.7818608E-02  0.1151628E+00
         21   -1    0    0  503  502  0.00000000000E+00  0.00000000000E+00  0.13988320076E+03  0.13988320076E+03  0.00000000000E+00 0. -1.
         21   -1    0    0  501  503 -0.00000000000E+00 -0.00000000000E+00 -0.32022644716E+03  0.32022644716E+03  0.00000000000E+00 0. -1.
          6    2    1    2  501    0 -0.81225109817E+02  0.53277839535E+02 -0.17339251904E+03  0.26329565435E+03  0.17269507605E+03 0.  0.
         24    2    3    3    0    0 -0.14362521303E+02  0.48597760056E+02 -0.17150669792E+03  0.19607843031E+03  0.80400118772E+02 0.  0.
         -6    2    1    2    0  502  0.81225109817E+02 -0.53277839535E+02 -0.69507273618E+01  0.19681399357E+03  0.17103037392E+03 0.  0.
        -24    2    5    5    0    0  0.31748203444E+02  0.50468511054E+01  0.49260350499E+02  0.10177974145E+03  0.83060908432E+02 0.  0.
          5    1    3    3  501    0 -0.66862588514E+02  0.46800794794E+01 -0.18858211147E+01  0.67217224043E+02  0.47000000000E+01 0. -1.
        -11    1    4    4    0    0  0.31716905162E+02  0.33232517776E+02 -0.73097003048E+02  0.86333852951E+02  0.00000000000E+00 0.  1.
         12    1    4    4    0    0 -0.46079426465E+02  0.15365242280E+02 -0.98409694874E+02  0.10974457735E+03  0.00000000000E+00 0. -1.
         -5    1    5    5    0  502  0.49476906373E+02 -0.58324690641E+02 -0.56211077860E+02  0.95034252124E+02  0.47000000000E+01 0.  1.
         13    1    6    6    0    0  0.21723171638E+02 -0.29657112671E+02 -0.44729365561E+01  0.37033061978E+02  0.00000000000E+00 0. -1.
        -14    1    6    6    0    0  0.10025031806E+02  0.34703963776E+02  0.53733287055E+02  0.64746679468E+02  0.00000000000E+00 0.  1.
</event>
<event>
12    1  0.1596842E-001  0.2540464E+03  0.7818608E-02  0.1110859E+00
         21   -1    0    0  501  502  0.00000000000E+00  0.00000000000E+00  0.37373863779E+03  0.37373863779E+03  0.00000000000E+00 0.  1.
         21   -1    0    0  502  503 -0.00000000000E+00 -0.00000000000E+00 -0.17233706791E+03  0.17233706791E+03  0.00000000000E+00 0. -1.
         -6    2    1    2    0  503  0.17492866257E+03  0.70570978825E+02  0.97672811823E+02  0.27217561802E+03  0.17017428958E+03 0.  0.
        -24    2    3    3    0    0  0.16486195748E+03  0.34421192530E+02  0.12612171977E+03  0.22485145966E+03  0.79291911280E+02 0.  0.
          6    2    1    2  501    0 -0.17492866257E+03 -0.70570978825E+02  0.10372875805E+03  0.27390008769E+03  0.16935555128E+03 0.  0.
         24    2    5    5    0    0 -0.42615502605E+02 -0.63074340567E+02  0.86570656135E+02  0.14018598093E+03  0.79769525797E+02 0.  0.
          5    1    5    5  501    0 -0.13231315996E+03 -0.74966382576E+01  0.17158101919E+02  0.13371410675E+03  0.47000000000E+01 0. -1.
        -11    1    6    6    0    0 -0.16554694580E+02 -0.43167549706E+02  0.95582071950E+02  0.10617639916E+03  0.00000000000E+00 0.  1.
         12    1    6    6    0    0 -0.26060808025E+02 -0.19906790861E+02 -0.90114158151E+01  0.34009581772E+02  0.00000000000E+00 0. -1.
         -5    1    3    3    0  503  0.10066705089E+02  0.36149786295E+02 -0.28448907951E+02  0.47324158356E+02  0.47000000000E+01 0.  1.
         13    1    4    4    0    0  0.84613073661E+02  0.48835484030E+02  0.38075629599E+02  0.10485242155E+03  0.00000000000E+00 0. -1.
        -14    1    4    4    0    0  0.80248883815E+02 -0.14414291500E+02  0.88046090176E+02  0.11999903811E+03  0.00000000000E+00 0.  1.
</event>
<event>
12    1  0.1596842E-001  0.2228455E+03  0.7818608E-02  0.1132245E+00
         21   -1    0    0  503  502  0.00000000000E+00  0.00000000000E+00  0.12449619506E+03  0.12449619506E+03  0.00000000000E+00 0. -1.
         21   -1    0    0  501  503 -0.00000000000E+00 -0.00000000000E+00 -0.50955393799E+03  0.50955393799E+03  0.00000000000E+00 0. -1.
          6    2    1    2  501    0 -0.13325122497E+03 -0.39999169759E+02 -0.34240074588E+03  0.40715863118E+03  0.17083342070E+03 0.  0.
         24    2    3    3    0    0 -0.91369973960E+02  0.23070877709E+00 -0.32075124442E+03  0.34500339627E+03  0.88303212136E+02 0.  0.
         -6    2    1    2    0  502  0.13325122497E+03  0.39999169759E+02 -0.42656997044E+02  0.22689150187E+03  0.17408133642E+03 0.  0.
        -24    2    5    5    0    0  0.11366114495E+03  0.86440503272E+02 -0.38961218975E+01  0.16313364639E+03  0.78781916338E+02 0.  0.
          5    1    3    3  501    0 -0.41881251007E+02 -0.40229878536E+02 -0.21649501460E+02  0.62155234908E+02  0.47000000000E+01 0. -1.
        -13    1    4    4    0    0  0.30654743000E+01  0.94275203452E+01 -0.14446560720E+03  0.14480534153E+03  0.00000000000E+00 0.  1.
         14    1    4    4    0    0 -0.94435448260E+02 -0.91968115682E+01 -0.17628563722E+03  0.20019805474E+03  0.00000000000E+00 0. -1.
         -5    1    5    5    0  502  0.19590080021E+02 -0.46441333513E+02 -0.38760875147E+02  0.63757855483E+02  0.47000000000E+01 0.  1.
         11    1    6    6    0    0  0.62180445600E+02 -0.33837801220E+00 -0.82803876539E+00  0.62186879347E+02  0.00000000000E+00 0. -1.
        -12    1    6    6    0    0  0.51480699346E+02  0.86778881284E+02 -0.30680831321E+01  0.10094676704E+03  0.00000000000E+00 0.  1.
</event>
<event>
12    1  0.1596842E-001  0.2883577E+03  0.7818608E-02  0.1091243E+00
         21   -1    0    0  503  502  0.00000000000E+00  0.00000000000E+00  0.11359139249E+03  0.11359139249E+03  0.00000000000E+00 0.  1.
         21   -1    0    0  501  503 -0.00000000000E+00 -0.00000000000E+00 -0.90399603235E+03  0.90399603235E+03  0.00000000000E+00 0.  1.
          6    2    1    2  501    0 -0.16395060118E+03 -0.16363295307E+03 -0.61740135619E+03  0.68131324800E+03  0.17131189193E+03 0.  0.
         24    2    3    3    0    0 -0.14798914395E+03 -0.70900046879E+02 -0.30541402751E+03  0.35541089566E+03  0.78176551312E+02 0.  0.
         -6    2    1    2    0  502  0.16395060118E+03  0.16363295307E+03 -0.17300328367E+03  0.33627417684E+03  0.17174004451E+03 0.  0.
        -24    2    5    5    0    0  0.15542799072E+03  0.10038737612E+03 -0.68457070723E+02  0.21369914457E+03  0.82130799794E+02 0.  0.
          5    1    3    3  501    0 -0.15961457225E+02 -0.92732906195E+02 -0.31198732867E+03  0.32590235234E+03  0.47000000000E+01 0. -1.
        -13    1    4    4    0    0 -0.86779323895E+02 -0.66805979667E+02 -0.24920444164E+03  0.27220680320E+03  0.00000000000E+00 0.  1.
         14    1    4    4    0    0 -0.61209820059E+02 -0.40940672122E+01 -0.56209585877E+02  0.83204092462E+02  0.00000000000E+00 0. -1.
         -5    1    5    5    0  502  0.85226104618E+01  0.63245576950E+02 -0.10454621295E+03  0.12257503227E+03  0.47000000000E+01 0.  1.
         11    1    6    6    0    0  0.31896754271E+02  0.43076597084E+01  0.15916383859E+02  0.35906686568E+02  0.00000000000E+00 0. -1.
        -12    1    6    6    0    0  0.12353123645E+03  0.96079716416E+02 -0.84373454582E+02  0.17779245800E+03  0.00000000000E+00 0.  1.
</event>
<event>
12    1  0.1596842E-001  0.1943569E+03  0.7818608E-02  0.1156429E+00
         21   -1    0    0  501  502  0.00000000000E+00  0.00000000000E+00  0.42070926284E+03  0.42070926284E+03  0.00000000000E+00 0. -1.
         21   -1    0    0  502  503 -0.00000000000E+00 -0.00000000000E+00 -0.10903500518E+03  0.10903500518E+03  0.00000000000E+00 0. -1.
         -6    2    1    2    0  503 -0.29589246936E+02 -0.69538644894E+02  0.31552055156E+02  0.18879992638E+03  0.17011388347E+03 0.  0.
        -24    2    3    3    0    0  0.28144000198E+01 -0.10745788108E+03  0.38351188524E+02  0.13824121770E+03  0.78004509839E+02 0.  0.
          6    2    1    2  501    0  0.29589246936E+02  0.69538644894E+02  0.28012220251E+03  0.34094434164E+03  0.17906269597E+03 0.  0.
         24    2    5    5    0    0 -0.86664745858E+01 -0.58674579804E+01  0.23066589618E+03  0.24287499467E+03  0.75312499159E+02 0.  0.
          5    1    5    5  501    0  0.38255721521E+02  0.75406102874E+02  0.49456306331E+02  0.98069346973E+02  0.47000000000E+01 0. -1.
        -11    1    6    6    0    0  0.22527850773E+01 -0.38267987986E+02  0.84906110123E+02  0.93158797122E+02  0.00000000000E+00 0.  1.
         12    1    6    6    0    0 -0.10919259663E+02  0.32400530005E+02  0.14575978605E+03  0.14971619754E+03  0.00000000000E+00 0. -1.
         -5    1    3    3    0  503 -0.32403646955E+02  0.37919236188E+02 -0.67991333683E+01  0.50558708682E+02  0.47000000000E+01 0.  1.
         11    1    4    4    0    0 -0.28612138799E+01 -0.19101063973E+02  0.45484560248E+02  0.49415406613E+02  0.00000000000E+00 0. -1.
        -12    1    4    4    0    0  0.56756138996E+01 -0.88356817109E+02 -0.71333717239E+01  0.88825811085E+02  0.00000000000E+00 0.  1.
</event>
<event>
12    1  0.1596842E-001  0.2248631E+03  0.7818608E-02  0.1130531E+00
         21   -1    0    0  501  502  0.00000000000E+00  0.00000000000E+00  0.15482447250E+03  0.15482447250E+03  0.00000000000E+00 0.  1.
         21   -1    0    0  502  503 -0.00000000000E+00 -0.00000000000E+00 -0.10799239982E+04  0.10799239982E+04  0.00000000000E+00 0.  1.
         -6    2    1    2    0  503  0.46950054125E+02 -0.13712039282E+03 -0.97841755589E+03  0.10036505660E+04  0.17031510559E+03 0.  0.
        -24    2    3    3    0    0  0.81160628684E+02 -0.52660189647E+02 -0.43787395543E+03  0.45545957432E+03  0.79684877945E+02 0.  0.
          6    2    1    2  501    0 -0.46950054125E+02  0.13712039282E+03  0.53318030185E+02  0.23109790473E+03  0.17192184131E+03 0.  0.
         24    2    5    5    0    0  0.85867137633E+01  0.18200341528E+02  0.66586776935E+02  0.99096159185E+02  0.70578083126E+02 0.  0.
          5    1    5    5  501    0 -0.55536767889E+02  0.11892005129E+03 -0.13268746750E+02  0.13200174554E+03  0.47000000000E+01 0. -1.
        -11    1    6    6    0    0  0.14620929342E+02  0.44245924523E+02  0.40425220510E+02  0.61690127776E+02  0.00000000000E+00 0.  1.
         12    1    6    6    0    0 -0.60342155792E+01 -0.26045582995E+02  0.26161556425E+02  0.37406031409E+02  0.00000000000E+00 0. -1.
         -5    1    3    3    0  503 -0.34210574559E+02 -0.84460203170E+02 -0.54054360046E+03  0.54819099165E+03  0.47000000000E+01 0.  1.
         11    1    4    4    0    0  0.85931042910E+02 -0.43046495093E+02 -0.25889191084E+03  0.27615605438E+03  0.00000000000E+00 0. -1.
        -12    1    4    4    0    0 -0.47704142263E+01 -0.96136945540E+01 -0.17898204459E+03  0.17930351994E+03  0.00000000000E+00 0.  1.
</event>
<event>
12    1  0.1596842E-001  0.1995042E+03  0.7818608E-02  0.1150278E+00
         21   -1    0    0  503  502  0.00000000000E+00  0.00000000000E+00  0.13693148779E+03  0.13693148779E+03  0.00000000000E+00 0. -1.
         21   -1    0    0  501  503 -0.00000000000E+00 -0.00000000000E+00 -0.33601008386E+03  0.33601008386E+03  0.00000000000E+00 0.  1.
          6    2    1    2  501    0  0.34768506812E+01 -0.10131162659E+03 -0.18706757355E+03  0.27307611313E+03  0.17117287260E+03 0.  0.
         24    2    3    3    0    0  0.27862726504E+02 -0.86302549355E+02 -0.20630625252E+03  0.23826002335E+03  0.77337619201E+02 0.  0.
         -6    2    1    2    0  502 -0.34768506812E+01  0.10131162659E+03 -0.12011022522E+02  0.19986545852E+03  0.17183073844E+03 0.  0.
        -24    2    5    5    0    0  0.50413816036E+02  0.40577795065E+02 -0.45437245886E+02  0.11193250304E+03  0.79222671147E+02 0.  0.
          5    1    3    3  501    0 -0.24385875822E+02 -0.15009077231E+02  0.19238678972E+02  0.34816089780E+02  0.47000000000E+01 0. -1.
        -11    1    4    4    0    0 -0.88381807900E+00 -0.34385701916E+02 -0.15811495291E+03  0.16181315139E+03  0.00000000000E+00 0.  1.
         12    1    4    4    0    0  0.28746544583E+02 -0.51916847439E+02 -0.48191299612E+02  0.76446871955E+02  0.00000000000E+00 0. -1.
         -5    1    5    5    0  502 -0.53890666717E+02  0.60733831521E+02  0.33426223364E+02  0.87932955476E+02  0.47000000000E+01 0.  1.
         11    1    6    6    0    0  0.18933411443E+02  0.48100877268E+02  0.50733629597E+01  0.51941384989E+02  0.00000000000E+00 0. -1.
        -12    1    6    6    0    0  0.31480404593E+02 -0.75230822030E+01 -0.50510608846E+02  0.59991118052E+02  0.00000000000E+00 0.  1.
</event>
<event>
12    1  0.1596842E-001  0.1725046E+03  0.7818608E-02  0.1176176E+00
         21   -1    0    0  501  502  0.00000000000E+00  0.00000000000E+00  0.32019026188E+03  0.32019026188E+03  0.00000000000E+00 0. -1.
         21   -1    0    0  502  503 -0.00000000000E+00 -0.00000000000E+00 -0.29771148271E+03  0.29771148271E+03  0.00000000000E+00 0. -1.
         -6    2    1    2    0  503  0.11739495270E+02  0.21815351094E+02 -0.24620549595E+03  0.29860710929E+03  0.16713866755E+03 0.  0.
        -24    2    3    3    0    0 -0.23719907166E+02 -0.36273313437E+02 -0.18579778357E+03  0.20748716700E+03  0.81558082528E+02 0.  0.
          6    2    1    2  501    0 -0.11739495270E+02 -0.21815351094E+02  0.26868427513E+03  0.31929463529E+03  0.17071642901E+03 0.  0.
         24    2    5    5    0    0 -0.30484317145E+02 -0.74776455506E+02  0.15527287100E+03  0.19264360485E+03  0.80505168340E+02 0.  0.
          5    1    5    5  501    0  0.18744821875E+02  0.52961104412E+02  0.11341140412E+03  0.12665103044E+03  0.47000000000E+01 0. -1.
        -11    1    6    6    0    0 -0.48185806754E+02 -0.56686467327E+02  0.64686540815E+02  0.98587910583E+02  0.00000000000E+00 0.  1.
         12    1    6    6    0    0  0.17701489609E+02 -0.18089988179E+02  0.90586330189E+02  0.94055694266E+02  0.00000000000E+00 0. -1.
         -5    1    3    3    0  503  0.35459402436E+02  0.58088664531E+02 -0.60407712383E+02  0.91119942293E+02  0.47000000000E+01 0.  1.
         11    1    4    4    0    0 -0.48633124966E+02 -0.39985871263E+00 -0.94543386222E+02  0.10631929556E+03  0.00000000000E+00 0. -1.
        -12    1    4    4    0    0  0.24913217801E+02 -0.35873454724E+02 -0.91254397348E+02  0.10116787143E+03  0.00000000000E+00 0.  1.
</event>
<event>
12    1  0.1596842E-001  0.1929222E+03  0.7818608E-02  0.1156452E+00
         21   -1    0    0  503  502  0.00000000000E+00  0.00000000000E+00  0.26607370833E+03  0.26607370833E+03  0.00000000000E+00 0.  1.
         21   -1    0    0  501  503 -0.00000000000E+00 -0.00000000000E+00 -0.25499220518E+03  0.25499220518E+03  0.00000000000E+00 0.  1.
          6    2    1    2  501    0 -0.36497152061E+02 -0.77477349311E+02 -0.17099853513E+03  0.25578845543E+03  0.16986009876E+03 0.  0.
         24    2    3    3    0    0 -0.58811935956E+02 -0.80753383945E+02 -0.18840443491E+03  0.22691394539E+03  0.77548402245E+02 0.  0.
         -6    2    1    2    0  502  0.36497152061E+02  0.77477349311E+02  0.18208003828E+03  0.26527745808E+03  0.17287049390E+03 0.  0.
        -24    2    5    5    0    0  0.88965517184E+02  0.34651659968E+02  0.10110782765E+03  0.15961025456E+03  0.78339260667E+02 0.  0.
          5    1    3    3  501    0  0.22314783895E+02  0.32760346343E+01  0.17405899776E+02  0.28874510043E+02  0.47000000000E+01 0. -1.
        -11    1    4    4    0    0 -0.61013118359E+01 -0.43543818078E+02 -0.13859835408E+03  0.14540561836E+03  0.00000000000E+00 0.  1.
         12    1    4    4    0    0 -0.52710624120E+02 -0.37209565868E+02 -0.49806080831E+02  0.81508327028E+02  0.00000000000E+00 0. -1.
         -5    1    5    5    0  502 -0.52468365123E+02  0.42825689343E+02  0.80972210631E+02  0.10566720353E+03  0.47000000000E+01 0.  1.
         11    1    6    6    0    0  0.58488924927E+02  0.12133764634E+02  0.95134958703E+01  0.60487099344E+02  0.00000000000E+00 0. -1.
        -12    1    6    6    0    0  0.30476592257E+02  0.22517895334E+02  0.91594331775E+02  0.99123155212E+02  0.00000000000E+00 0.  1.
</event>
<event>
12    1  0.1596842E-001  0.2005523E+03  0.7818608E-02  0.1149422E+00
         21   -1    0    0  503  502  0.00000000000E+00  0.00000000000E+00  0.21744798857E+03  0.21744798857E+03  0.00000000000E+00 0.  1.
         21   -1    0    0  501  503 -0.00000000000E+00 -0.00000000000E+00 -0.20476175235E+03  0.20476175235E+03  0.00000000000E+00 0.  1.
          6    2    1    2  501    0  0.96224315390E+02 -0.34707873504E+02 -0.60347868499E+02  0.20943515095E+03  0.17250351262E+03 0.  0.
         24    2    3    3    0    0  0.58902791742E+02  0.47068975563E+02 -0.42041766645E+02  0.11757899963E+03  0.79826585014E+02 0.  0.
         -6    2    1    2    0  502 -0.96224315390E+02  0.34707873504E+02  0.73034104725E+02  0.21277458997E+03  0.17168369267E+03 0.  0.
        -24    2    5    5    0    0 -0.97845140123E+01  0.22002513625E+02 -0.17974164076E+02  0.86529350767E+02  0.81144381504E+02 0.  0.
          5    1    3    3  501    0  0.37321523648E+02 -0.81776849067E+02 -0.18306101853E+02  0.91856151323E+02  0.47000000000E+01 0. -1.
        -13    1    4    4    0    0  0.74390764922E+02  0.18532236079E+02 -0.35377239543E+02  0.84433279916E+02  0.00000000000E+00 0.  1.
         14    1    4    4    0    0 -0.15487973180E+02  0.28536739484E+02 -0.66645271026E+01  0.33145719710E+02  0.00000000000E+00 0. -1.
         -5    1    5    5    0  502 -0.86439801378E+02  0.12705359880E+02  0.91008268800E+02  0.12624523921E+03  0.47000000000E+01 0.  1.
         13    1    6    6    0    0 -0.22817399076E+00  0.42454872319E+02  0.16309734622E+02  0.45480497913E+02  0.00000000000E+00 0. -1.
        -14    1    6    6    0    0 -0.95563400215E+01 -0.20452358694E+02 -0.34283898697E+02  0.41048852854E+02  0.00000000000E+00 0.  1.
</event>
<event>
12    1  0.1596842E-001  0.1851691E+03  0.7818608E-02  0.1167137E+00
         21   -1    0    0  503  502  0.00000000000E+00  0.00000000000E+00  0.35229991634E+03  0.35229991634E+03  0.00000000000E+00 0. -1.
         21   -1    0    0  501  503 -0.00000000000E+00 -0.00000000000E+00 -0.93485717216E+02  0.93485717216E+02  0.00000000000E+00 0. -1.
          6    2    1    2  501    0 -0.61563098987E+02  0.24413611179E+02  0.18703546676E+03  0.26319167007E+03  0.17292064597E+03 0.  0.
         24    2    3    3    0    0 -0.84345402928E+02 -0.19310036736E+02  0.17648357742E+03  0.21255351126E+03  0.80904372772E+02 0.  0.
         -6    2    1    2    0  502  0.61563098987E+02 -0.24413611179E+02  0.71778732367E+02  0.18259396348E+03  0.15428003602E+03 0.  0.
        -24    2    5    5    0    0  0.53991840127E+02 -0.70188662366E+02  0.63858977496E+02  0.13529183046E+03  0.79902085432E+02 0.  0.
          5    1    3    3  501    0  0.22782303941E+02  0.43723647915E+02  0.10551889337E+02  0.50638158818E+02  0.47000000000E+01 0. -1.
        -13    1    4    4    0    0  0.84348252805E+01 -0.23252278702E+02  0.27401617019E+02  0.36914270379E+02  0.00000000000E+00 0.  1.
         14    1    4    4    0    0 -0.92780228208E+02  0.39422419663E+01  0.14908196040E+03  0.17563924088E+03  0.00000000000E+00 0. -1.
         -5    1    5    5    0  502  0.75712588605E+01  0.45775051186E+02  0.79197548710E+01  0.47302133029E+02  0.47000000000E+01 0.  1.
         11    1    6    6    0    0  0.70574478945E+02 -0.40109698174E+02  0.28595400731E+02  0.86065335118E+02  0.00000000000E+00 0. -1.
        -12    1    6    6    0    0 -0.16582638818E+02 -0.30078964192E+02  0.35263576765E+02  0.49226495338E+02  0.00000000000E+00 0.  1.
</event>
<event>
12    1  0.1596842E-001  0.2031875E+03  0.7818608E-02  0.1147754E+00
         21   -1    0    0  501  502  0.00000000000E+00  0.00000000000E+00  0.67891480081E+03  0.67891480081E+03  0.00000000000E+00 0.  1.
         21   -1    0    0  502  503 -0.00000000000E+00 -0.00000000000E+00 -0.62890979306E+02  0.62890979306E+02  0.00000000000E+00 0.  1.
         -6    2    1    2    0  503  0.21148304644E+02 -0.10122159891E+03  0.22398538997E+03  0.30024117258E+03  0.17112055375E+03 0.  0.
        -24    2    3    3    0    0 -0.15726858580E+02 -0.15807445036E+02  0.37255761047E+02  0.91565827457E+02  0.80616993415E+02 0.  0.
          6    2    1    2  501    0 -0.21148304644E+02  0.10122159891E+03  0.39203843154E+03  0.44156460754E+03  0.17490599748E+03 0.  0.
         24    2    5    5    0    0  0.56025482432E+02  0.59050860234E+02  0.24953058154E+03  0.27403926044E+03  0.78779098495E+02 0.  0.
          5    1    5    5  501    0 -0.77173787075E+02  0.42170738675E+02  0.14250785000E+03  0.16752534711E+03  0.47000000000E+01 0. -1.
        -11    1    6    6    0    0  0.44548020891E+02  0.77851811238E+02  0.21641604655E+03  0.23426765863E+03  0.00000000000E+00 0.  1.
         12    1    6    6    0    0  0.11477461541E+02 -0.18800951004E+02  0.33114534994E+02  0.39771601802E+02  0.00000000000E+00 0. -1.
         -5    1    3    3    0  503  0.36875163223E+02 -0.85414153873E+02  0.18672962892E+03  0.20867534512E+03  0.47000000000E+01 0.  1.
         11    1    4    4    0    0 -0.73276451962E+01  0.24823318777E+02  0.42484722278E+02  0.49747795592E+02  0.00000000000E+00 0. -1.
        -12    1    4    4    0    0 -0.83992133838E+01 -0.40630763813E+02 -0.52289612307E+01  0.41818031865E+02  0.00000000000E+00 0.  1.
</event>
<event>
12    1  0.1596842E-001  0.1765277E+03  0.7818608E-02  0.1171578E+00
         21   -1    0    0  503  502  0.00000000000E+00  0.00000000000E+00  0.14673753894E+04  0.14673753894E+04  0.00000000000E+00 0.  1.
         21   -1    0    0  501  503 -0.00000000000E+00 -0.00000000000E+00 -0.26209815767E+02  0.26209815767E+02  0.00000000000E+00 0.  1.
          6    2    1    2  501    0 -0.79419425806E+01 -0.32777882249E+02  0.38702432567E+03  0.42476538779E+03  0.17175663593E+03 0.  0.
         24    2    3    3    0    0  0.45313643992E+02 -0.52297550312E+02  0.17993306857E+03  0.20999561871E+03  0.83269986261E+02 0.  0.
         -6    2    1    2    0  502  0.79419425806E+01  0.32777882249E+02  0.10541412480E+04  0.10688198174E+04  0.17327598607E+03 0.  0.
        -24    2    5    5    0    0 -0.19065588494E+02  0.79383749217E+01  0.23835032729E+03  0.25219057218E+03  0.79766482417E+02 0.  0.
          5    1    3    3  501    0 -0.53255586572E+02  0.19519668063E+02  0.20709125710E+03  0.21476976908E+03  0.47000000000E+01 0. -1.
        -11    1    4    4    0    0  0.34491840941E+02 -0.52124111531E+02  0.51166869685E+02  0.80775359162E+02  0.00000000000E+00 0.  1.
         12    1    4    4    0    0  0.10821803051E+02 -0.17343878086E+00  0.12876619888E+03  0.12922025955E+03  0.00000000000E+00 0. -1.
         -5    1    5    5    0  502  0.27007531074E+02  0.24839507327E+02  0.81579092071E+03  0.81662924524E+03  0.47000000000E+01 0.  1.
         11    1    6    6    0    0  0.19986789711E+02  0.28505758536E+02  0.70407557105E+02  0.78544726941E+02  0.00000000000E+00 0. -1.
        -12    1    6    6    0    0 -0.39052378205E+02 -0.20567383614E+02  0.16794277019E+03  0.17364584524E+03  0.00000000000E+00 0.  1.
</event>
<event>
12    1  0.1596842E-001  0.1810585E+03  0.7818608E-02  0.1167926E+00
         21   -1    0    0  503  502  0.00000000000E+00  0.00000000000E+00  0.76611958587E+02  0.76611958587E+02  0.00000000000E+00 0. -1.
         21   -1    0    0  501  503 -0.00000000000E+00 -0.00000000000E+00 -0.43912535175E+03  0.43912535175E+03  0.00000000000E+00 0.  1.
          6    2    1    2  501    0  0.26412569779E+02 -0.43982539399E+02 -0.23703556138E+03  0.29544919875E+03  0.16873732270E+03 0.  0.
         24    2    3    3    0    0 -0.34624237951E+02 -0.40559934955E+02 -0.18495073096E+03  0.21499967620E+03  0.95781739952E+02 0.  0.
         -6    2    1    2    0  502 -0.26412569779E+02  0.43982539399E+02 -0.12547783179E+03  0.22028811159E+03  0.17363777879E+03 0.  0.
        -24    2    5    5    0    0 -0.50389001827E+02 -0.32213436688E+02 -0.56521171390E+02  0.11465759005E+03  0.79843366247E+02 0.  0.
          5    1    3    3  501    0  0.61036807729E+02 -0.34226044443E+01 -0.52084830420E+02  0.80449522552E+02  0.47000000000E+01 0. -1.
        -11    1    4    4    0    0 -0.21279992790E+02 -0.71741808954E+02 -0.13931232853E+03  0.15813807298E+03  0.00000000000E+00 0.  1.
         12    1    4    4    0    0 -0.13344245161E+02  0.31181873998E+02 -0.45638402423E+02  0.56861603219E+02  0.00000000000E+00 0. -1.
         -5    1    5    5    0  502  0.23976432048E+02  0.76195976088E+02 -0.68956660400E+02  0.10563052153E+03  0.47000000000E+01 0.  1.
         13    1    6    6    0    0 -0.19453622050E+02  0.26364056255E+02 -0.25454695825E+02  0.41490341197E+02  0.00000000000E+00 0. -1.
        -14    1    6    6    0    0 -0.30935379776E+02 -0.58577492943E+02 -0.31066475565E+02  0.73167248858E+02  0.00000000000E+00 0.  1.
</event>
<event>
12    1  0.1596842E-001  0.1855990E+03  0.7818608E-02  0.1162639E+00
         21   -1    0    0  501  502  0.00000000000E+00  0.00000000000E+00  0.89206791577E+02  0.89206791577E+02  0.00000000000E+00 0. -1.
         21   -1    0    0  502  503 -0.00000000000E+00 -0.00000000000E+00 -0.43825301945E+03  0.43825301945E+03  0.00000000000E+00 0. -1.
         -6    2    1    2    0  503  0.66648313758E+02  0.19319770598E+02 -0.26633993461E+03  0.32426696596E+03  0.17145510544E+03 0.  0.
        -24    2    3    3    0    0 -0.16708274435E+02 -0.71161599897E+01 -0.67198802089E+02  0.10672051142E+03  0.80893648621E+02 0.  0.
          6    2    1    2  501    0 -0.66648313758E+02 -0.19319770598E+02 -0.82706293258E+02  0.20319284507E+03  0.17213875240E+03 0.  0.
         24    2    5    5    0    0 -0.94954495267E+02 -0.55694226599E+02 -0.76652518606E+02  0.15646941252E+03  0.80553494020E+02 0.  0.
          5    1    5    5  501    0  0.28306181509E+02  0.36374456001E+02 -0.60537746513E+01  0.46723432542E+02  0.47000000000E+01 0. -1.
        -11    1    6    6    0    0 -0.19862890995E+02  0.74248000808E+00 -0.57180990502E+02  0.60537190140E+02  0.00000000000E+00 0.  1.
         12    1    6    6    0    0 -0.75091604272E+02 -0.56436706607E+02 -0.19471528105E+02  0.95932222384E+02  0.00000000000E+00 0. -1.
         -5    1    3    3    0  503  0.83356588192E+02  0.26435930587E+02 -0.19914113253E+03  0.21754645454E+03  0.47000000000E+01 0.  1.
         11    1    4    4    0    0 -0.15649361286E+02 -0.75411073478E+01 -0.86074698189E+02  0.87810161581E+02  0.00000000000E+00 0. -1.
        -12    1    4    4    0    0 -0.10589131491E+01  0.42494735808E+00  0.18875896100E+02  0.18910349835E+02  0.00000000000E+00 0.  1.
</event>
<event>
12    1  0.1596842E-001  0.2109827E+03  0.7818608E-02  0.1140811E+00
         21   -1    0    0  501  502  0.00000000000E+00  0.00000000000E+00  0.78958002494E+03  0.78958002494E+03  0.00000000000E+00 0. -1.
         21   -1    0    0  502  503 -0.00000000000E+00 -0.00000000000E+00 -0.10382613491E+03  0.10382613491E+03  0.00000000000E+00 0.  1.
         -6    2    1    2    0  503  0.35037296321E+02  0.11572359794E+03  0.40755394782E+02  0.21477756221E+03  0.17276815612E+03 0.  0.
        -24    2    3    3    0    0  0.90216256321E+02  0.76169497479E+02  0.30924992926E+02  0.14601731722E+03  0.80149463441E+02 0.  0.
          6    2    1    2  501    0 -0.35037296321E+02 -0.11572359794E+03  0.64499849525E+03  0.67862859765E+03  0.17289925224E+03 0.  0.
         24    2    5    5    0    0 -0.11042727563E+02  0.91993135020E+01  0.31331972460E+03  0.32336197942E+03  0.78658443337E+02 0.  0.
          5    1    5    5  501    0 -0.23994568758E+02 -0.12492291144E+03  0.33167877065E+03  0.35526661823E+03  0.47000000000E+01 0. -1.
        -11    1    6    6    0    0  0.12568650406E+02  0.23600911506E+01  0.44872421677E+01  0.13552724653E+02  0.00000000000E+00 0.  1.
         12    1    6    6    0    0 -0.23611377969E+02  0.68392223515E+01  0.30883248243E+03  0.30980925476E+03  0.00000000000E+00 0. -1.
         -5    1    3    3    0  503 -0.55178960000E+02  0.39554100462E+02  0.98304018563E+01  0.68760244987E+02  0.47000000000E+01 0.  1.
         13    1    4    4    0    0 -0.13808124694E+02  0.13425797361E+02  0.12961311381E+02  0.23214476842E+02  0.00000000000E+00 0. -1.
        -14    1    4    4    0    0  0.10402438102E+03  0.62743700119E+02  0.17963681544E+02  0.12280284038E+03  0.00000000000E+00 0.  1.
</event>
<event>
12    1  0.1596842E-001  0.1923755E+03  0.7818608E-02  0.1159161E+00
         21   -1    0    0  503  502  0.00000000000E+00  0.00000000000E+00  0.53803431860E+03  0.53803431860E+03  0.00000000000E+00 0. -1.
         21   -1    0    0  501  503 -0.00000000000E+00 -0.00000000000E+00 -0.24369048635E+03  0.24369048635E+03  0.00000000000E+00 0. -1.
          6    2    1    2  501    0  0.41721267231E+02  0.34005541598E+02 -0.18927023700E+03  0.26125299639E+03  0.17185128602E+03 0.  0.
         24    2    3    3    0    0 -0.26126688670E+02 -0.14953086478E+02 -0.14018981365E+03  0.16413826867E+03  0.79887350280E+02 0.  0.
         -6    2    1    2    0  502 -0.41721267231E+02 -0.34005541598E+02  0.48361406925E+03  0.52047180856E+03  0.18469243227E+03 0.  0.
        -24    2    5    5    0    0 -0.53489271872E+01 -0.28033034820E+01  0.45962129255E+03  0.46667338742E+03  0.80596826417E+02 0.  0.
          5    1    3    3  501    0  0.67847955900E+02  0.48958628077E+02 -0.49080423352E+02  0.97114727717E+02  0.47000000000E+01 0. -1.
        -11    1    4    4    0    0 -0.51869879128E+01 -0.13134886230E+02 -0.14231378143E+03  0.14301273533E+03  0.00000000000E+00 0.  1.
         12    1    4    4    0    0 -0.20939700757E+02 -0.18182002483E+01  0.21239677821E+01  0.21125533344E+02  0.00000000000E+00 0. -1.
         -5    1    5    5    0  502 -0.36372340044E+02 -0.31202238116E+02  0.23992776695E+02  0.53798421141E+02  0.47000000000E+01 0.  1.
         13    1    6    6    0    0 -0.38062752636E+02  0.11093024594E+02  0.15518620709E+03  0.16017049417E+03  0.00000000000E+00 0. -1.
        -14    1    6    6    0    0  0.32713825449E+02 -0.13896328076E+02  0.30443508547E+03  0.30650289325E+03  0.00000000000E+00 0.  1.
</event>
<event>
12    1  0.1596842E-001  0.1763636E+03  0.7818608E-02  0.1173048E+00
         21   -1    0    0  501  502  0.00000000000E+00  0.00000000000E+00  0.15844691847E+03  0.15844691847E+03  0.00000000000E+00 0.  1.
         21   -1    0    0  502  503 -0.00000000000E+00 -0.00000000000E+00 -0.34518107132E+03  0.34518107132E+03  0.00000000000E+00 0.  1.
         -6    2    1    2    0  503  0.36366811335E+00  0.36458811962E+02 -0.26370535222E+03  0.31724539206E+03  0.17255361129E+03 0.  0.
        -24    2    3    3    0    0  0.36762738050E+01 -0.40262886388E+02 -0.88574174877E+02  0.12595971138E+03  0.79911509980E+02 0.  0.
          6    2    1    2  501    0 -0.36366811335E+00 -0.36458811962E+02  0.76971199383E+02  0.18638259773E+03  0.16578458908E+03 0.  0.
         24    2    5    5    0    0 -0.20716994590E+02 -0.82336034682E+02  0.68786918962E+02  0.13531352774E+03  0.79810363347E+02 0.  0.
          5    1    5    5  501    0  0.20353326476E+02  0.45877222720E+02  0.81842804210E+01  0.51069069985E+02  0.47000000000E+01 0. -1.
        -11    1    6    6    0    0  0.14083776359E+02 -0.53480310867E+02  0.71064835430E+02  0.90048360571E+02  0.00000000000E+00 0.  1.
         12    1    6    6    0    0 -0.34800770949E+02 -0.28855723815E+02 -0.22779164675E+01  0.45265167170E+02  0.00000000000E+00 0. -1.
         -5    1    3    3    0  503 -0.33126056916E+01  0.76721698350E+02 -0.17513117735E+03  0.19128568068E+03  0.47000000000E+01 0.  1.
         13    1    4    4    0    0 -0.13429787394E+02 -0.61121170935E+02 -0.62297957138E+02  0.88301711136E+02  0.00000000000E+00 0. -1.
        -14    1    4    4    0    0  0.17106061199E+02  0.20858284547E+02 -0.26276217738E+02  0.37658000247E+02  0.00000000000E+00 0.  1.
</event>
<event>
12    1  0.1596842E-001  0.2055622E+03  0.7818608E-02  0.1145278E+00
         21   -1    0    0  503  502  0.00000000000E+00  0.00000000000E+00  0.13460660178E+03  0.13460660178E+03  0.00000000000E+00 0. -1.
         21   -1    0    0  501  503 -0.00000000000E+00 -0.00000000000E+00 -0.32061326876E+03  0.32061326876E+03  0.00000000000E+00 0. -1.
          6    2    1    2  501    0 -0.38961547857E+02 -0.10543844028E+03 -0.57323789991E+02  0.21270163043E+03  0.17123288174E+03 0.  0.
         24    2    3    3    0    0 -0.28340211438E+02 -0.86799465501E+02 -0.10502115478E+03  0.16019112886E+03  0.79337507010E+02 0.  0.
         -6    2    1    2    0  502  0.38961547857E+02  0.10543844028E+03 -0.12868287699E+03  0.24251824011E+03  0.17210620864E+03 0.  0.
        -24    2    5    5    0    0 -0.63995706662E+01 -0.72815058861E+01 -0.72400454391E+02  0.10852861950E+03  0.80266186038E+02 0.  0.
          5    1    3    3  501    0 -0.10621336419E+02 -0.18638974780E+02  0.47697364786E+02  0.52510501575E+02  0.47000000000E+01 0. -1.
        -11    1    4    4    0    0  0.12243939002E+02 -0.10934360136E+02  0.79076850771E+01  0.18221025140E+02  0.00000000000E+00 0.  1.
         12    1    4    4    0    0 -0.40584150440E+02 -0.75865105366E+02 -0.11292883985E+03  0.14197010372E+03  0.00000000000E+00 0. -1.
         -5    1    5    5    0  502  0.45361118523E+02  0.11271994617E+03 -0.56282422603E+02  0.13398962061E+03  0.47000000000E+01 0.  1.
         11    1    6    6    0    0  0.82663656874E+01  0.12245496718E+01  0.16249316744E+02  0.18272181540E+02  0.00000000000E+00 0. -1.
        -12    1    6    6    0    0 -0.14665936354E+02 -0.85060555580E+01 -0.88649771135E+02  0.90256437956E+02  0.00000000000E+00 0.  1.
</event>
<event>
12    1  0.1596842E-001  0.2155927E+03  0.7818608E-02  0.1138101E+00
         21   -1    0    0  503  502  0.00000000000E+00  0.00000000000E+00  0.33202140245E+03  0.33202140245E+03  0.00000000000E+00 0. -1.
         21   -1    0    0  501  503 -0.00000000000E+00 -0.00000000000E+00 -0.16134510857E+03  0.16134510857E+03  0.00000000000E+00 0.  1.
          6    2    1    2  501    0  0.34795811722E+02  0.11761484290E+03 -0.96461658199E+01  0.21580841244E+03  0.17730262994E+03 0.  0.
         24    2    3    3    0    0  0.13087818944E+02  0.15412971572E+03  0.14741726586E+02  0.16660036246E+03  0.60092445421E+02 0.  0.
         -6    2    1    2    0  502 -0.34795811722E+02 -0.11761484290E+03  0.18032245969E+03  0.27755809858E+03  0.17169248333E+03 0.  0.
        -24    2    5    5    0    0 -0.87610398589E+02 -0.79971207941E+02  0.14666572033E+03  0.20433726859E+03  0.78561503143E+02 0.  0.
          5    1    3    3  501    0  0.21707992779E+02 -0.36514872817E+02 -0.24387892406E+02  0.49208049985E+02  0.47000000000E+01 0. -1.
        -11    1    4    4    0    0 -0.10234351582E+02  0.11262647364E+03 -0.89113402098E+01  0.11344107061E+03  0.00000000000E+00 0.  1.
         12    1    4    4    0    0  0.23322170526E+02  0.41503242080E+02  0.23653066796E+02  0.53159291850E+02  0.00000000000E+00 0. -1.
         -5    1    5    5    0  502  0.52814586866E+02 -0.37643634961E+02  0.33656739364E+02  0.73220829984E+02  0.47000000000E+01 0.  1.
         13    1    6    6    0    0 -0.55291986437E+02  0.25619759505E+00  0.49019631059E+02  0.73893123026E+02  0.00000000000E+00 0. -1.
        -14    1    6    6    0    0 -0.32318412152E+02 -0.80227405536E+02  0.97646089270E+02  0.13044414557E+03  0.00000000000E+00 0.  1.
</event>
<event>
12    1  0.1596842E-001  0.1955035E+03  0.7818608E-02  0.1153693E+00
         21   -1    0    0  503  502  0.00000000000E+00  0.00000000000E+00  0.57662886425E+03  0.57662886425E+03  0.00000000000E+00 0.  1.
         21   -1    0    0  501  503 -0.00000000000E+00 -0.00000000000E+00 -0.67084984999E+02  0.67084984999E+02  0.00000000000E+00 0.  1.
          6    2    1    2  501    0  0.66803751394E+02 -0.64349006556E+02  0.21593106778E+03  0.29096732825E+03  0.17155822403E+03 0.  0.
         24    2    3    3    0    0  0.63889311690E+02 -0.76094311681E+02  0.23618669382E+03  0.26690851413E+03  0.74724909902E+02 0.  0.
         -6    2    1    2    0  502 -0.66803751394E+02  0.64349006556E+02  0.29361281147E+03  0.35274652100E+03  0.17209906790E+03 0.  0.
        -24    2    5    5    0    0  0.17366619132E+01  0.61706328077E+02  0.25256857050E+03  0.27267472994E+03  0.82158010123E+02 0.  0.
          5    1    3    3  501    0  0.29144397044E+01  0.11745305125E+02 -0.20255626030E+02  0.24058814126E+02  0.47000000000E+01 0. -1.
        -11    1    4    4    0    0  0.78065173005E+02 -0.74012333846E+02  0.22227659728E+03  0.24693902587E+03  0.00000000000E+00 0.  1.
         12    1    4    4    0    0 -0.14175861315E+02 -0.20819778351E+01  0.13910096530E+02  0.19969488256E+02  0.00000000000E+00 0. -1.
         -5    1    5    5    0  502 -0.68540413307E+02  0.26426784791E+01  0.41044240973E+02  0.80071791056E+02  0.47000000000E+01 0.  1.
         13    1    6    6    0    0 -0.18357170218E+02 -0.14648804558E+02  0.67448200909E+02  0.71420116069E+02  0.00000000000E+00 0. -1.
        -14    1    6    6    0    0  0.20093832131E+02  0.76355132635E+02  0.18512036959E+03  0.20125461387E+03  0.00000000000E+00 0.  1.
</event>
<event>
12    1  0.1596842E-001  0.1776016E+03  0.7818608E-02  0.1170182E+00
         21   -1    0    0  501  502  0.00000000000E+00  0.00000000000E+00  0.60810756907E+03  0.60810756907E+03  0.00000000000E+00 0. -1.
         21   -1    0    0  502  503 -0.00000000000E+00 -0.00000000000E+00 -0.15524779409E+03  0.15524779409E+03  0.00000000000E+00 0. -1.
         -6    2    1    2    0  503 -0.43430321410E+01 -0.46007800322E+02 -0.85061347823E+02  0.19692068587E+03  0.17148394681E+03 0.  0.
        -24    2    3    3    0    0  0.29628368274E+02  0.27791932555E+02 -0.23329744420E+02  0.94776975946E+02  0.82390329973E+02 0.  0.
          6    2    1    2  501    0  0.43430321410E+01  0.46007800322E+02  0.53792112281E+03  0.56643467729E+03  0.17132871814E+03 0.  0.
         24    2    5    5    0    0  0.16706419250E+02  0.37532619825E+02  0.15866532685E+03  0.18685368357E+03  0.89731884665E+02 0.  0.
          5    1    5    5  501    0 -0.12363387109E+02  0.84751804964E+01  0.37925579596E+03  0.37958099372E+03  0.47000000000E+01 0. -1.
        -13    1    6    6    0    0 -0.23609317722E+02 -0.50738567126E+01  0.10367736462E+03  0.10645252387E+03  0.00000000000E+00 0.  1.
         14    1    6    6    0    0  0.40315736972E+02  0.42606476538E+02  0.54987962233E+02  0.80401159700E+02  0.00000000000E+00 0. -1.
         -5    1    3    3    0  503 -0.33971400415E+02 -0.73799732876E+02 -0.61731603403E+02  0.10214370993E+03  0.47000000000E+01 0.  1.
         11    1    4    4    0    0  0.14884234494E+02 -0.24391448961E+02 -0.28433952576E+02  0.40310952333E+02  0.00000000000E+00 0. -1.
        -12    1    4    4    0    0  0.14744133780E+02  0.52183381516E+02  0.51042081561E+01  0.54466023613E+02  0.00000000000E+00 0.  1.
</event>
<event>
12    1  0.1596842E-001  0.1990513E+03  0.7818608E-02  0.1150777E+00
         21   -1    0    0  503  502  0.00000000000E+00  0.00000000000E+00  0.26593241875E+03  0.26593241875E+03  0.00000000000E+00 0.  1.
         21   -1    0    0  501  503 -0.00000000000E+00 -0.00000000000E+00 -0.20629668900E+03  0.20629668900E+03  0.00000000000E+00 0.  1.
          6    2    1    2  501    0 -0.41771118114E+02  0.91072699527E+02 -0.95459307307E+02  0.22075758837E+03  0.17199526321E+03 0.  0.
         24    2    3    3    0    0  0.15294789056E+02  0.10762391801E+03 -0.46558991612E+02  0.14366159970E+03  0.81572527414E+02 0.  0.
         -6    2    1    2    0  502  0.41771118114E+02 -0.91072699527E+02  0.15509503706E+03  0.25147151938E+03  0.17071728568E+03 0.  0.
        -24    2    5    5    0    0 -0.32428404672E+02 -0.90810614478E+02  0.10999188737E+03  0.16451163218E+03  0.75284080008E+02 0.  0.
          5    1    3    3  501    0 -0.57065907171E+02 -0.16551218482E+02 -0.48900315695E+02  0.77095988673E+02  0.47000000000E+01 0. -1.
        -11    1    4    4    0    0  0.86071616968E+01  0.96252562889E+02 -0.68226458393E+02  0.11829407728E+03  0.00000000000E+00 0.  1.
         12    1    4    4    0    0  0.66876273596E+01  0.11371355120E+02  0.21667466781E+02  0.25367522419E+02  0.00000000000E+00 0. -1.
         -5    1    5    5    0  502  0.74199522786E+02 -0.26208504946E+00  0.45103149693E+02  0.86959887204E+02  0.47000000000E+01 0.  1.
         11    1    6    6    0    0 -0.30710866493E+02 -0.14433935431E+02  0.44535632787E+01  0.34224699249E+02  0.00000000000E+00 0. -1.
        -12    1    6    6    0    0 -0.17175381784E+01 -0.76376679046E+02  0.10553832409E+03  0.13028693293E+03  0.00000000000E+00 0.  1.
</event>
<event>
12    1  0.1596842E-001  0.2085132E+03  0.7818608E-02  0.1143004E+00
         21   -1    0    0  503  502  0.00000000000E+00  0.00000000000E+00  0.70796507272E+03  0.70796507272E+03  0.00000000000E+00 0.  1.
         21   -1    0    0  501  503 -0.00000000000E+00 -0.00000000000E+00 -0.68707475773E+02  0.68707475773E+02  0.00000000000E+00 0. -1.
          6    2    1    2  501    0  0.86595578501E+02  0.78923149629E+02  0.44849974159E+03  0.49406625473E+03  0.17094381561E+03 0.  0.
         24    2    3    3    0    0  0.62170388851E+02  0.10686127649E+03  0.42457618488E+03  0.44966405448E+03  0.81537325560E+02 0.  0.
         -6    2    1    2    0  502 -0.86595578501E+02 -0.78923149629E+02  0.19075785535E+03  0.28260629375E+03  0.17248217336E+03 0.  0.
        -24    2    5    5    0    0 -0.48049739788E+02 -0.48539585469E+02  0.22920487315E+02  0.10767655139E+03  0.80025134364E+02 0.  0.
          5    1    3    3  501    0  0.24425189651E+02 -0.27938126859E+02  0.23923556712E+02  0.44402200256E+02  0.47000000000E+01 0. -1.
        -13    1    4    4    0    0 -0.74113480289E+01  0.67839917498E+02  0.20300771117E+03  0.21417122422E+03  0.00000000000E+00 0.  1.
         14    1    4    4    0    0  0.69581736879E+02  0.39021358990E+02  0.22156847371E+03  0.23549283026E+03  0.00000000000E+00 0. -1.
         -5    1    5    5    0  502 -0.38545838714E+02 -0.30383564159E+02  0.16783736804E+03  0.17492974236E+03  0.47000000000E+01 0.  1.
         13    1    6    6    0    0 -0.68817989227E+02 -0.40407090815E+02  0.28405150529E+02  0.84708330204E+02  0.00000000000E+00 0. -1.
        -14    1    6    6    0    0  0.20768249439E+02 -0.81324946547E+01 -0.54846632141E+01  0.22968221190E+02  0.00000000000E+00 0.  1.
</event>
<event>
12    1  0.1596842E-001  0.1725298E+03  0.7818608E-02  0.1175308E+00
         21   -1    0    0  503  502  0.00000000000E+00  0.00000000000E+00  0.69994469475E+03  0.69994469475E+03  0.00000000000E+00 0.  1.
         21   -1    0    0  501  503 -0.00000000000E+00 -0.00000000000E+00 -0.30834632894E+03  0.30834632894E+03  0.00000000000E+00 0.  1.
          6    2    1    2  501    0  0.21317376415E+01 -0.17736562556E+01 -0.27233062941E+03  0.32238253883E+03  0.17250750553E+03 0.  0.
         24    2    3    3    0    0  0.12457929068E+02  0.63034438116E+02 -0.20072853107E+03  0.22514227036E+03  0.79174227698E+02 0.  0.
         -6    2    1    2    0  502 -0.21317376415E+01  0.17736562556E+01  0.66392899522E+03  0.68590848486E+03  0.17222383330E+03 0.  0.
        -24    2    5    5    0    0 -0.16343359923E+02  0.60224547156E+02  0.51640191446E+03  0.52651963202E+03  0.81595858643E+02 0.  0.
          5    1    3    3  501    0 -0.10326191426E+02 -0.64808094372E+02 -0.71602098341E+02  0.97240268471E+02  0.47000000000E+01 0. -1.
        -13    1    4    4    0    0  0.10653823943E+01 -0.78817265808E+01 -0.10582302651E+03  0.10612148507E+03  0.00000000000E+00 0.  1.
         14    1    4    4    0    0  0.11392546673E+02  0.70916164697E+02 -0.94905504556E+02  0.11902078529E+03  0.00000000000E+00 0. -1.
         -5    1    5    5    0  502  0.14211622282E+02 -0.58450890901E+02  0.14752708076E+03  0.15938885284E+03  0.47000000000E+01 0.  1.
         11    1    6    6    0    0  0.31143327729E+02  0.33431605307E+02  0.17892383285E+03  0.18466541922E+03  0.00000000000E+00 0. -1.
        -12    1    6    6    0    0 -0.47486687652E+02  0.26792941849E+02  0.33747808161E+03  0.34185421279E+03  0.00000000000E+00 0.  1.
</event>
<event>
12    1  0.1596842E-001  0.1998929E+03  0.7818608E-02  0.1149891E+00
         21   -1    0    0  503  502  0.00000000000E+00  0.00000000000E+00  0.73233944298E+03  0.73233944298E+03  0.00000000000E+00 0.  1.
         21   -1    0    0  501  503 -0.00000000000E+00 -0.00000000000E+00 -0.65555882139E+02  0.65555882139E+02  0.00000000000E+00 0. -1.
          6    2    1    2  501    0 -0.20190123051E+02 -0.99763810067E+02  0.16961842222E+03  0.26215947341E+03  0.17203697706E+03 0.  0.
         24    2    3    3    0    0 -0.69189071854E+01 -0.58313812608E+02  0.18891083319E+03  0.21432105181E+03  0.82449004451E+02 0.  0.
         -6    2    1    2    0  502  0.20190123051E+02  0.99763810067E+02  0.49716513863E+03  0.53573585171E+03  0.17169527913E+03 0.  0.
        -24    2    5    5    0    0 -0.37837206735E+02  0.76368395872E+02  0.19957841692E+03  0.23160682754E+03  0.80909776674E+02 0.  0.
          5    1    3    3  501    0 -0.13271215866E+02 -0.41449997459E+02 -0.19292410974E+02  0.47838421599E+02  0.47000000000E+01 0. -1.
        -13    1    4    4    0    0  0.18395324256E+02 -0.27346986414E+02  0.15616373931E+02  0.36470765761E+02  0.00000000000E+00 0.  1.
         14    1    4    4    0    0 -0.25314231442E+02 -0.30966826194E+02  0.17329445926E+03  0.17785028605E+03  0.00000000000E+00 0. -1.
         -5    1    5    5    0  502  0.58027329787E+02  0.23395414195E+02  0.29758672171E+03  0.30412902417E+03  0.47000000000E+01 0.  1.
         13    1    6    6    0    0  0.22097964949E+02  0.38295417181E+02  0.99670252192E+02  0.10903677455E+03  0.00000000000E+00 0. -1.
        -14    1    6    6    0    0 -0.59935171684E+02  0.38072978691E+02  0.99908164732E+02  0.12257005299E+03  0.00000000000E+00 0.  1.
</event>
<event>
12    1  0.1596842E-001  0.1825601E+03  0.7818608E-02  0.1165764E+00
         21   -1    0    0  503  502  0.00000000000E+00  0.00000000000E+00  0.11320434667E+04  0.11320434667E+04  0.00000000000E+00 0.  1.
         21   -1    0    0  501  503 -0.00000000000E+00 -0.00000000000E+00 -0.30585232575E+02  0.30585232575E+02  0.00000000000E+00 0.  1.
          6    2    1    2  501    0 -0.48614268379E+02 -0.30129748683E+02  0.42276262557E+03  0.45980871959E+03  0.17153621244E+03 0.  0.
         24    2    3    3    0    0 -0.79316308289E+02 -0.18170702972E+02  0.17114740728E+03  0.20600182033E+03  0.80771676697E+02 0.  0.
         -6    2    1    2    0  502  0.48614268379E+02  0.30129748683E+02  0.67869560850E+03  0.70281997964E+03  0.17336967998E+03 0.  0.
        -24    2    5    5    0    0 -0.34711414422E+02  0.38161612059E+02  0.28997912202E+03  0.30516400131E+03  0.79849768683E+02 0.  0.
          5    1    3    3  501    0  0.30702039910E+02 -0.11959045712E+02  0.25161521830E+03  0.25380689925E+03  0.47000000000E+01 0. -1.
        -11    1    4    4    0    0 -0.55543935988E+02  0.27642644821E+02  0.10678655949E+03  0.12350147337E+03  0.00000000000E+00 0.  1.
         12    1    4    4    0    0 -0.23772372301E+02 -0.45813347793E+02  0.64360847786E+02  0.82500346960E+02  0.00000000000E+00 0. -1.
         -5    1    5    5    0  502  0.83325682801E+02 -0.80318633757E+01  0.38871648648E+03  0.39765597833E+03  0.47000000000E+01 0.  1.
         11    1    6    6    0    0 -0.41413857137E+01  0.45149812955E+02  0.73024705508E+02  0.85955013233E+02  0.00000000000E+00 0. -1.
        -12    1    6    6    0    0 -0.30570028709E+02 -0.69882008957E+01  0.21695441651E+03  0.21920898807E+03  0.00000000000E+00 0.  1.
</event>
<event>
12    1  0.1596842E-001  0.1726816E+03  0.7818608E-02  0.1175698E+00
         21   -1    0    0  501  502  0.00000000000E+00  0.00000000000E+00  0.70874257698E+03  0.70874257698E+03  0.00000000000E+00 0.  1.
         21   -1    0    0  502  503 -0.00000000000E+00 -0.00000000000E+00 -0.19940161962E+03  0.19940161962E+03  0.00000000000E+00 0.  1.
         -6    2    1    2    0  503 -0.17821116821E+02 -0.13861407261E+02 -0.14977796618E+03  0.22678036146E+03  0.16877844168E+03 0.  0.
        -24    2    3    3    0    0 -0.77962985198E+01  0.44330913031E+02 -0.13813315735E+03  0.16641037972E+03  0.81151914325E+02 0.  0.
          6    2    1    2  501    0  0.17821116821E+02  0.13861407261E+02  0.65911892354E+03  0.68136383514E+03  0.17119926884E+03 0.  0.
         24    2    5    5    0    0 -0.57293291846E+02  0.98732411678E+01  0.31124068965E+03  0.32541519351E+03  0.75128417373E+02 0.  0.
          5    1    5    5  501    0  0.75114408667E+02  0.39881660935E+01  0.34787823390E+03  0.35594864163E+03  0.47000000000E+01 0. -1.
        -13    1    6    6    0    0  0.60216528634E+01 -0.34113724035E+01  0.16913463448E+03  0.16927617182E+03  0.00000000000E+00 0.  1.
         14    1    6    6    0    0 -0.63314944710E+02  0.13284613571E+02  0.14210605517E+03  0.15613902170E+03  0.00000000000E+00 0. -1.
         -5    1    3    3    0  503 -0.10024818301E+02 -0.58192320292E+02 -0.11644808834E+02  0.60369981744E+02  0.47000000000E+01 0.  1.
         11    1    4    4    0    0  0.15987267975E+02 -0.10952761843E+02 -0.45646870020E+01  0.19909598106E+02  0.00000000000E+00 0. -1.
        -12    1    4    4    0    0 -0.23783566495E+02  0.55283674875E+02 -0.13356847035E+03  0.14650078161E+03  0.00000000000E+00 0.  1.
</event>
<event>
12    1  0.1596842E-001  0.1742473E+03  0.7818608E-02  0.1173817E+00
         21   -1    0    0  501  502  0.00000000000E+00  0.00000000000E+00  0.44399924714E+02  0.44399924714E+02  0.00000000000E+00 0. -1.
         21   -1    0    0  502  503 -0.00000000000E+00 -0.00000000000E+00 -0.71057845316E+03  0.71057845316E+03  0.00000000000E+00 0. -1.
         -6    2    1    2    0  503 -0.53337374494E+01 -0.67875764827E+00 -0.41176915519E+03  0.44661778558E+03  0.17287191723E+03 0.  0.
        -24    2    3    3    0    0  0.51750533943E+01 -0.55869475702E+02 -0.14999242132E+03  0.17883877513E+03  0.79607798259E+02 0.  0.
          6    2    1    2  501    0  0.53337374494E+01  0.67875764827E+00 -0.25440937327E+03  0.30836059230E+03  0.17416433679E+03 0.  0.
         24    2    5    5    0    0  0.36246203981E+02 -0.48308687692E+02 -0.21634663774E+03  0.23888964712E+03  0.81331907829E+02 0.  0.
          5    1    5    5  501    0 -0.30912466531E+02  0.48987445341E+02 -0.38062735523E+02  0.69470945175E+02  0.47000000000E+01 0. -1.
        -13    1    6    6    0    0 -0.28686487642E+01 -0.27542514768E+02 -0.12666960576E+02  0.30451127330E+02  0.00000000000E+00 0.  1.
         14    1    6    6    0    0  0.39114852745E+02 -0.20766172925E+02 -0.20367967717E+03  0.20843851979E+03  0.00000000000E+00 0. -1.
         -5    1    3    3    0  503 -0.10508790844E+02  0.55190718053E+02 -0.26177673386E+03  0.26777901045E+03  0.47000000000E+01 0.  1.
         13    1    4    4    0    0 -0.28580938250E+02  0.37886795666E+01 -0.42897472205E+02  0.51685754766E+02  0.00000000000E+00 0. -1.
        -14    1    4    4    0    0  0.33755991644E+02 -0.59658155268E+02 -0.10709494912E+03  0.12715302037E+03  0.00000000000E+00 0.  1.
</event>
<event>
12    1  0.1596842E-001  0.1769017E+03  0.7818608E-02  0.1171753E+00
         21   -1    0    0  501  502  0.00000000000E+00  0.00000000000E+00  0.10518750328E+04  0.10518750328E+04  0.00000000000E+00 0.  1.
         21   -1    0    0  502  503 -0.00000000000E+00 -0.00000000000E+00 -0.24356173495E+03  0.24356173495E+03  0.00000000000E+00 0.  1.
         -6    2    1    2    0  503  0.92375292554E+01 -0.37990290896E+02 -0.20408610529E+03  0.26769810545E+03  0.16876771949E+03 0.  0.
        -24    2    3    3    0    0 -0.35256120774E+02  0.26288359352E+02 -0.79163359627E+02  0.12025587218E+03  0.79123734720E+02 0.  0.
          6    2    1    2  501    0 -0.92375292554E+01  0.37990290896E+02  0.10123994032E+04  0.10277386623E+04  0.17252713513E+03 0.  0.
         24    2    5    5    0    0  0.24068249501E+02 -0.83782784416E+01  0.28600582455E+03  0.29908988536E+03  0.83701563084E+02 0.  0.
          5    1    5    5  501    0 -0.33305778757E+02  0.46368569338E+02  0.72639357862E+03  0.72864877698E+03  0.47000000000E+01 0. -1.
        -13    1    6    6    0    0  0.34845228737E+02 -0.90682677552E+01  0.28603350311E+03  0.28829080517E+03  0.00000000000E+00 0.  1.
         14    1    6    6    0    0 -0.10776979235E+02  0.68998931366E+00 -0.27678561765E-01  0.10799080183E+02  0.00000000000E+00 0. -1.
         -5    1    3    3    0  503  0.44493650029E+02 -0.64278650248E+02 -0.12492274566E+03  0.14744223328E+03  0.47000000000E+01 0.  1.
         11    1    4    4    0    0  0.17138343105E+02  0.22133040835E+02 -0.56429071544E+02  0.62990748657E+02  0.00000000000E+00 0. -1.
        -12    1    4    4    0    0 -0.52394463878E+02  0.41553185163E+01 -0.22734288083E+02  0.57265123519E+02  0.00000000000E+00 0.  1.
</event>
<event>
12    1  0.1596842E-001  0.1929967E+03  0.7818608E-02  0.1156034E+00
         21   -1    0    0  501  502  0.00000000000E+00  0.00000000000E+00  0.18665473602E+03  0.18665473602E+03  0.00000000000E+00 0. -1.
         21   -1    0    0  502  503 -0.00000000000E+00 -0.00000000000E+00 -0.19908390128E+03  0.19908390128E+03  0.00000000000E+00 0. -1.
         -6    2    1    2    0  503  0.84514603367E+02 -0.19845206609E+02  0.50870339113E+01  0.19306371101E+03  0.17236927854E+03 0.  0.
        -24    2    3    3    0    0  0.43432474400E+02  0.62712822345E+01  0.69585094038E+02  0.11211989055E+03  0.76177921545E+02 0.  0.
          6    2    1    2  501    0 -0.84514603367E+02  0.19845206609E+02 -0.17516199173E+02  0.19267492630E+03  0.17111475560E+03 0.  0.
         24    2    5    5    0    0  0.10160795355E+02  0.56136979973E+01 -0.45796248332E+02  0.92735854158E+02  0.79799040833E+02 0.  0.
          5    1    5    5  501    0 -0.94675398722E+02  0.14231508612E+02  0.28280049158E+02  0.99939072144E+02  0.47000000000E+01 0. -1.
        -11    1    6    6    0    0  0.76803502100E+01 -0.38141483722E+01  0.22327752127E+02  0.23917859900E+02  0.00000000000E+00 0.  1.
         12    1    6    6    0    0  0.24804451447E+01  0.94278463695E+01 -0.68124000458E+02  0.68817994258E+02  0.00000000000E+00 0. -1.
         -5    1    3    3    0  503  0.41082128967E+02 -0.26116488844E+02 -0.64498060127E+02  0.80943820456E+02  0.47000000000E+01 0.  1.
         11    1    4    4    0    0  0.74758413568E+01 -0.23949631481E+02  0.58797966557E+02  0.63927098505E+02  0.00000000000E+00 0. -1.
        -12    1    4    4    0    0  0.35956633044E+02  0.30220913715E+02  0.10787127481E+02  0.48192792043E+02  0.00000000000E+00 0.  1.
</event>
<event>
12    1  0.1596842E-001  0.2552041E+03  0.7818608E-02  0.1110111E+00
         21   -1    0    0  503  502  0.00000000000E+00  0.00000000000E+00  0.86906094552E+03  0.86906094552E+03  0.00000000000E+00 0.  1.
         21   -1    0    0  501  503 -0.00000000000E+00 -0.00000000000E+00 -0.10711756295E+03  0.10711756295E+03  0.00000000000E+00 0.  1.
          6    2    1    2  501    0 -0.28387378015E+02  0.18551680472E+03  0.11288589170E+03  0.27875126427E+03  0.17244336672E+03 0.  0.
         24    2    3    3    0    0 -0.43707809060E+02  0.20791369179E+03  0.98610430020E+02  0.24773167427E+03  0.80675211311E+02 0.  0.
         -6    2    1    2    0  502  0.28387378015E+02 -0.18551680472E+03  0.64905749087E+03  0.69742724419E+03  0.17293584481E+03 0.  0.
        -24    2    5    5    0    0  0.41216922406E+02 -0.11454010426E+03  0.23365103753E+03  0.27577940453E+03  0.81505843008E+02 0.  0.
          5    1    3    3  501    0  0.15320431045E+02 -0.22396887070E+02  0.14275461678E+02  0.31019590003E+02  0.47000000000E+01 0. -1.
        -13    1    4    4    0    0 -0.53706564640E+02  0.17458988738E+03  0.52673567487E+02  0.19010662422E+03  0.00000000000E+00 0.  1.
         14    1    4    4    0    0  0.99987555797E+01  0.33323804410E+02  0.45936862533E+02  0.57625050046E+02  0.00000000000E+00 0. -1.
         -5    1    5    5    0  502 -0.12829544391E+02 -0.70976700458E+02  0.41540645334E+03  0.42164783967E+03  0.47000000000E+01 0.  1.
         13    1    6    6    0    0  0.23230571823E+01  0.10121221964E+02  0.46026237057E+02  0.47183156172E+02  0.00000000000E+00 0. -1.
        -14    1    6    6    0    0  0.38893865224E+02 -0.12466132623E+03  0.18762480047E+03  0.22859624835E+03  0.00000000000E+00 0.  1.
</event>
<event>
12    1  0.1596842E-001  0.1832748E+03  0.7818608E-02  0.1165156E+00
         21   -1    0    0  501  502  0.00000000000E+00  0.00000000000E+00  0.18655044963E+03  0.18655044963E+03  0.00000000000E+00 0. -1.
         21   -1    0    0  502  503 -0.00000000000E+00 -0.00000000000E+00 -0.18068278309E+03  0.18068278309E+03  0.00000000000E+00 0. -1.
         -6    2    1    2    0  503  0.15316416614E+02  0.63319468614E+02  0.25090500430E+02  0.18498431468E+03  0.17130591275E+03 0.  0.
        -24    2    3    3    0    0  0.17593383463E+02 -0.59784310575E+01 -0.36752178079E+02  0.91957488647E+02  0.82220364540E+02 0.  0.
          6    2    1    2  501    0 -0.15316416614E+02 -0.63319468614E+02 -0.19222833888E+02  0.18224891804E+03  0.16911890214E+03 0.  0.
         24    2    5    5    0    0 -0.41885514269E+02  0.15217337838E+02  0.17708765402E+02  0.91364486236E+02  0.77768279501E+02 0.  0.
          5    1    5    5  501    0  0.26569097656E+02 -0.78536806453E+02 -0.36931599290E+02  0.90884431803E+02  0.47000000000E+01 0. -1.
        -11    1    6    6    0    0 -0.61886938481E+02  0.73297529099E+01 -0.17813119559E+01  0.62344939687E+02  0.00000000000E+00 0.  1.
         12    1    6    6    0    0  0.20001424212E+02  0.78875849284E+01  0.19490077357E+02  0.29019546549E+02  0.00000000000E+00 0. -1.
         -5    1    3    3    0  503 -0.22769668498E+01  0.69297899672E+02  0.61842678510E+02  0.93026826036E+02  0.47000000000E+01 0.  1.
         11    1    4    4    0    0  0.40519826192E+02  0.22511409810E+02 -0.12269376939E+02  0.47949530724E+02  0.00000000000E+00 0. -1.
        -12    1    4    4    0    0 -0.22926442728E+02 -0.28489840867E+02 -0.24482801140E+02  0.44007957922E+02  0.00000000000E+00 0.  1.
</event>
<event>
12    1  0.1596842E-001  0.1808315E+03  0.7818608E-02  0.1167423E+00
         21   -1    0    0  501  502  0.00000000000E+00  0.00000000000E+00  0.19912141309E+03  0.19912141309E+03  0.00000000000E+00 0. -1.
         21   -1    0    0  502  503 -0.00000000000E+00 -0.00000000000E+00 -0.16586574720E+03  0.16586574720E+03  0.00000000000E+00 0. -1.
         -6    2    1    2    0  503 -0.34101551023E+02 -0.38502972561E+02 -0.89061047856E+01  0.17930558620E+03  0.17153944112E+03 0.  0.
        -24    2    3    3    0    0 -0.51564451673E+02  0.10469044855E+02 -0.45052554290E+02  0.11580860044E+03  0.92808435556E+02 0.  0.
          6    2    1    2  501    0  0.34101551023E+02  0.38502972561E+02  0.42161770667E+02  0.18568157409E+03  0.17336273352E+03 0.  0.
         24    2    5    5    0    0  0.14644574554E+02  0.91722151989E+02  0.40796320460E+02  0.12880618885E+03  0.79367989730E+02 0.  0.
          5    1    5    5  501    0  0.19456976469E+02 -0.53219179427E+02  0.13654502064E+01  0.56875385243E+02  0.47000000000E+01 0. -1.
        -13    1    6    6    0    0  0.80876237628E+01 -0.62454270282E+01  0.27978763386E+02  0.29786342802E+02  0.00000000000E+00 0.  1.
         14    1    6    6    0    0  0.65569507914E+01  0.97967579017E+02  0.12817557074E+02  0.99019846049E+02  0.00000000000E+00 0. -1.
         -5    1    3    3    0  503  0.17462900651E+02 -0.48972017416E+02  0.36146449504E+02  0.63496985761E+02  0.47000000000E+01 0.  1.
         11    1    4    4    0    0 -0.37859445189E+00 -0.35542036211E+02 -0.42506661958E+01  0.35797316029E+02  0.00000000000E+00 0. -1.
        -12    1    4    4    0    0 -0.51185857221E+02  0.46011081066E+02 -0.40801888094E+02  0.80011284407E+02  0.00000000000E+00 0.  1.
</event>
<event>
12    1  0.1596842E-001  0.1925293E+03  0.7818608E-02  0.1156354E+00
         21   -1    0    0  501  502  0.00000000000E+00  0.00000000000E+00  0.42157195521E+03  0.42157195521E+03  0.00000000000E+00 0.  1.
         21   -1    0    0  502  503 -0.00000000000E+00 -0.00000000000E+00 -0.20677629268E+03  0.20677629268E+03  0.00000000000E+00 0.  1.
         -6    2    1    2    0  503  0.20436482938E+02  0.83524986819E+02 -0.13102394725E+03  0.23288367361E+03  0.17225985435E+03 0.  0.
        -24    2    3    3    0    0  0.63097253725E+01  0.10560033409E+03 -0.31148839327E+02  0.12952017222E+03  0.67926295541E+02 0.  0.
          6    2    1    2  501    0 -0.20436482938E+02 -0.83524986819E+02  0.34581960978E+03  0.39546457428E+03  0.17148455833E+03 0.  0.
         24    2    5    5    0    0  0.59312637248E+01 -0.58829752192E+02  0.81721397543E+02  0.12886549630E+03  0.80198564119E+02 0.  0.
          5    1    5    5  501    0 -0.26367746663E+02 -0.24695234627E+02  0.26409821223E+03  0.26659907799E+03  0.47000000000E+01 0. -1.
        -11    1    6    6    0    0 -0.33316122528E+02 -0.36694878816E+02  0.22447060430E+02  0.54409086315E+02  0.00000000000E+00 0.  1.
         12    1    6    6    0    0  0.39247386253E+02 -0.22134873376E+02  0.59274337113E+02  0.74456409981E+02  0.00000000000E+00 0. -1.
         -5    1    3    3    0  503  0.14126757566E+02 -0.22075347268E+02 -0.99875107927E+02  0.10336350139E+03  0.47000000000E+01 0.  1.
         11    1    4    4    0    0  0.20191981517E+02  0.50515770067E+02  0.14886595643E+02  0.56401860544E+02  0.00000000000E+00 0. -1.
        -12    1    4    4    0    0 -0.13882256144E+02  0.55084564020E+02 -0.46035434969E+02  0.73118311672E+02  0.00000000000E+00 0.  1.
</event>
<event>
12    1  0.1596842E-001  0.1954681E+03  0.7818608E-02  0.1157360E+00
         21   -1    0    0  503  502  0.00000000000E+00  0.00000000000E+00  0.50242394862E+03  0.50242394862E+03  0.00000000000E+00 0. -1.
         21   -1    0    0  501  503 -0.00000000000E+00 -0.00000000000E+00 -0.70265435851E+02  0.70265435851E+02  0.00000000000E+00 0. -1.
          6    2    1    2  501    0  0.10665881263E+02 -0.49040280489E+02  0.24896938548E+03  0.31653359753E+03  0.18891546608E+03 0.  0.
         24    2    3    3    0    0 -0.27067212033E+01 -0.81767932715E+02  0.25611462851E+03  0.28015956538E+03  0.78748701445E+02 0.  0.
         -6    2    1    2    0  502 -0.10665881263E+02  0.49040280489E+02  0.18318912728E+03  0.25615578694E+03  0.17186861462E+03 0.  0.
        -24    2    5    5    0    0 -0.11313542526E+02  0.87082495900E+02  0.18227271572E+03  0.21780791309E+03  0.80657217717E+02 0.  0.
          5    1    3    3  501    0  0.13372602466E+02  0.32727652225E+02 -0.71452430247E+01  0.36374032149E+02  0.47000000000E+01 0. -1.
        -13    1    4    4    0    0 -0.31587514469E+02 -0.11129928098E+02  0.11442441298E+03  0.11922496658E+03  0.00000000000E+00 0.  1.
         14    1    4    4    0    0  0.28880793265E+02 -0.70638004616E+02  0.14169021553E+03  0.16093459880E+03  0.00000000000E+00 0. -1.
         -5    1    5    5    0  502  0.64766126380E+00 -0.38042215411E+02  0.91641155809E+00  0.38347873848E+02  0.47000000000E+01 0.  1.
         11    1    6    6    0    0 -0.27487595744E+02  0.95387901216E+02  0.13842979899E+03  0.17034444184E+03  0.00000000000E+00 0. -1.
        -12    1    6    6    0    0  0.16174053217E+02 -0.83054053160E+01  0.43842916737E+02  0.47463471248E+02  0.00000000000E+00 0.  1.
</event>
<event>
12    1  0.1596842E-001  0.1822885E+03  0.7818608E-02  0.1165640E+00
         21   -1    0    0  503  502  0.00000000000E+00  0.00000000000E+00  0.17978214629E+02  0.17978214629E+02  0.00000000000E+00 0.  1.
         21   -1    0    0  501  503 -0.00000000000E+00 -0.00000000000E+00 -0.22795698087E+04  0.22795698087E+04  0.00000000000E+00 0.  1.
          6    2    1    2  501    0  0.57491500899E+02 -0.11257008269E+02 -0.16309412065E+04  0.16410809582E+04  0.17246883573E+03 0.  0.
         24    2    3    3    0    0  0.93642671906E+02 -0.36847313370E+02 -0.96120988272E+03  0.96987018134E+03  0.81222259948E+02 0.  0.
         -6    2    1    2    0  502 -0.57491500899E+02  0.11257008269E+02 -0.63065038759E+03  0.65646706518E+03  0.17261837499E+03 0.  0.
        -24    2    5    5    0    0 -0.47422565642E+02 -0.46210343239E+02 -0.52933634162E+03  0.53946063006E+03  0.80227883428E+02 0.  0.
          5    1    3    3  501    0 -0.36151171008E+02  0.25590305101E+02 -0.66973132377E+03  0.67121077682E+03  0.47000000000E+01 0. -1.
        -11    1    4    4    0    0 -0.48584866303E+01 -0.28646459854E+02 -0.16371079603E+03  0.16626920729E+03  0.00000000000E+00 0.  1.
         12    1    4    4    0    0  0.98501158537E+02 -0.82008535151E+01 -0.79749908669E+03  0.80360097405E+03  0.00000000000E+00 0. -1.
         -5    1    5    5    0  502 -0.10068935257E+02  0.57467351508E+02 -0.10131404598E+03  0.11700643512E+03  0.47000000000E+01 0.  1.
         13    1    6    6    0    0  0.22544535928E+02 -0.16696389612E+02 -0.13694781520E+03  0.13979173657E+03  0.00000000000E+00 0. -1.
        -14    1    6    6    0    0 -0.69967101570E+02 -0.29513953628E+02 -0.39238852642E+03  0.39966889349E+03  0.00000000000E+00 0.  1.
</event>
<event>
12    1  0.1596842E-001  0.2881124E+03  0.7818608E-02  0.1091533E+00
         21   -1    0    0  503  502  0.00000000000E+00  0.00000000000E+00  0.64773526217E+02  0.64773526217E+02  0.00000000000E+00 0. -1.
         21   -1    0    0  501  503 -0.00000000000E+00 -0.00000000000E+00 -0.14866874764E+04  0.14866874764E+04  0.00000000000E+00 0.  1.
          6    2    1    2  501    0  0.21455626234E+03  0.84583513996E+02 -0.10052480412E+04  0.10457209893E+04  0.17268469086E+03 0.  0.
         24    2    3    3    0    0  0.60635053236E+02  0.88375290626E+02 -0.48091362306E+03  0.49922781616E+03  0.80397126243E+02 0.  0.
         -6    2    1    2    0  502 -0.21455626234E+03 -0.84583513996E+02 -0.41666590894E+03  0.50574001333E+03  0.17021668797E+03 0.  0.
        -24    2    5    5    0    0 -0.66568892470E+02  0.57754096111E+01 -0.21605549234E+03  0.24053890858E+03  0.81940331750E+02 0.  0.
          5    1    3    3  501    0  0.15392120910E+03 -0.37917766296E+01 -0.52433441817E+03  0.54649317311E+03  0.47000000000E+01 0. -1.
        -13    1    4    4    0    0  0.74122724105E+02  0.77090620757E+02 -0.45812899670E+03  0.47044587324E+03  0.00000000000E+00 0.  1.
         14    1    4    4    0    0 -0.13487670869E+02  0.11284669869E+02 -0.22784626368E+02  0.28781942921E+02  0.00000000000E+00 0. -1.
         -5    1    5    5    0  502 -0.14798736987E+03 -0.90358923607E+02 -0.20061041660E+03  0.26520110476E+03  0.47000000000E+01 0.  1.
         13    1    6    6    0    0 -0.94971464530E+01 -0.96635923230E+01  0.28022022399E+01  0.13835936713E+02  0.00000000000E+00 0. -1.
        -14    1    6    6    0    0 -0.57071746017E+02  0.15439001934E+02 -0.21885769458E+03  0.22670297186E+03  0.00000000000E+00 0.  1.
</event>
<event>
12    1  0.1596842E-001  0.1808332E+03  0.7818608E-02  0.1167284E+00
         21   -1    0    0  503  502  0.00000000000E+00  0.00000000000E+00  0.40562420859E+02  0.40562420859E+02  0.00000000000E+00 0. -1.
         21   -1    0    0  501  503 -0.00000000000E+00 -0.00000000000E+00 -0.16059560479E+04  0.16059560479E+04  0.00000000000E+00 0.  1.
          6    2    1    2  501    0 -0.24861698876E+02 -0.39395807441E+02 -0.13668481485E+04  0.13787583247E+04  0.17472985833E+03 0.  0.
         24    2    3    3    0    0 -0.14544577963E+02 -0.90723957416E+02 -0.74621713369E+03  0.75590523737E+03  0.78168638643E+02 0.  0.
         -6    2    1    2    0  502  0.24861698876E+02  0.39395807441E+02 -0.19854547859E+03  0.26776014402E+03  0.17350808034E+03 0.  0.
        -24    2    5    5    0    0 -0.38285095802E+02  0.59280179419E+02 -0.87399977893E+02  0.13830622074E+03  0.80684362353E+02 0.  0.
          5    1    3    3  501    0 -0.10317120913E+02  0.51328149975E+02 -0.62063101477E+03  0.62285308738E+03  0.47000000000E+01 0. -1.
        -13    1    4    4    0    0  0.69563312525E+01 -0.31900315233E+02 -0.52441201132E+03  0.52542742437E+03  0.00000000000E+00 0.  1.
         14    1    4    4    0    0 -0.21500909215E+02 -0.58823642183E+02 -0.22180512237E+03  0.23047781300E+03  0.00000000000E+00 0. -1.
         -5    1    5    5    0  502  0.63146794678E+02 -0.19884371979E+02 -0.11114550070E+03  0.12945392328E+03  0.47000000000E+01 0.  1.
         11    1    6    6    0    0  0.92430050450E+01  0.35145350607E+02 -0.48071479166E+00  0.36343636283E+02  0.00000000000E+00 0. -1.
        -12    1    6    6    0    0 -0.47528100847E+02  0.24134828813E+02 -0.86919263101E+02  0.10196258446E+03  0.00000000000E+00 0.  1.
</event>
<event>
12    1  0.1596842E-001  0.2807648E+03  0.7818608E-02  0.1095334E+00
         21   -1    0    0  503  502  0.00000000000E+00  0.00000000000E+00  0.43234836267E+03  0.43234836267E+03  0.00000000000E+00 0.  1.
         21   -1    0    0  501  503 -0.00000000000E+00 -0.00000000000E+00 -0.58304304809E+03  0.58304304809E+03  0.00000000000E+00 0. -1.
          6    2    1    2  501    0 -0.65762869663E+02 -0.21151082198E+03 -0.49637536438E+03  0.57005557488E+03  0.17179427592E+03 0.  0.
         24    2    3    3    0    0 -0.44985089297E+02 -0.44237531229E+02 -0.25016198054E+03  0.27163441219E+03  0.84991881664E+02 0.  0.
         -6    2    1    2    0  502  0.65762869663E+02  0.21151082198E+03  0.34568067896E+03  0.44533583589E+03  0.17253200305E+03 0.  0.
        -24    2    5    5    0    0  0.98206911073E+02  0.12451810616E+03  0.26345078930E+03  0.32122220576E+03  0.92887194746E+02 0.  0.
          5    1    3    3  501    0 -0.20777780365E+02 -0.16727329075E+03 -0.24621338384E+03  0.29842116268E+03  0.47000000000E+01 0. -1.
        -13    1    4    4    0    0  0.16540624740E+02 -0.11474890250E+02 -0.13882590269E+03  0.14027792639E+03  0.00000000000E+00 0.  1.
         14    1    4    4    0    0 -0.61525714037E+02 -0.32762640978E+02 -0.11133607785E+03  0.13135648580E+03  0.00000000000E+00 0. -1.
         -5    1    5    5    0  502 -0.32444041411E+02  0.86992715828E+02  0.82229889663E+02  0.12411363013E+03  0.47000000000E+01 0.  1.
         13    1    6    6    0    0  0.26029932805E+02 -0.59633404864E+01  0.82687807051E+02  0.86892993196E+02  0.00000000000E+00 0. -1.
        -14    1    6    6    0    0  0.72176978268E+02  0.13048144664E+03  0.18076298225E+03  0.23432921256E+03  0.00000000000E+00 0.  1.
</event>
<event>
12    1  0.1596842E-001  0.2148773E+03  0.7818608E-02  0.1137794E+00
         21   -1    0    0  503  502  0.00000000000E+00  0.00000000000E+00  0.76547279214E+02  0.76547279214E+02  0.00000000000E+00 0. -1.
         21   -1    0    0  501  503 -0.00000000000E+00 -0.00000000000E+00 -0.91722598762E+03  0.91722598762E+03  0.00000000000E+00 0. -1.
          6    2    1    2  501    0 -0.66823153446E+02  0.11099438314E+03 -0.71141913236E+03  0.74316178012E+03  0.17142684335E+03 0.  0.
         24    2    3    3    0    0 -0.72057783913E+02  0.36387662893E+02 -0.58518402503E+03  0.59635934014E+03  0.81778561926E+02 0.  0.
         -6    2    1    2    0  502  0.66823153446E+02 -0.11099438314E+03 -0.12925957605E+03  0.25061148671E+03  0.17121037453E+03 0.  0.
        -24    2    5    5    0    0  0.17109642389E+02 -0.12456825254E+03 -0.50968840558E+02  0.15676473730E+03  0.78532609461E+02 0.  0.
          5    1    3    3  501    0  0.52346304674E+01  0.74606720243E+02 -0.12623510733E+03  0.14680243998E+03  0.47000000000E+01 0. -1.
        -11    1    4    4    0    0 -0.66886101750E+02  0.45395091856E+02 -0.29175378721E+03  0.30274533411E+03  0.00000000000E+00 0.  1.
         12    1    4    4    0    0 -0.51716821633E+01 -0.90074289635E+01 -0.29343023782E+03  0.29361400603E+03  0.00000000000E+00 0. -1.
         -5    1    5    5    0  502  0.49713511056E+02  0.13573869405E+02 -0.78290735488E+02  0.93846749413E+02  0.47000000000E+01 0.  1.
         11    1    6    6    0    0 -0.67535389080E+01 -0.24291053512E+01  0.14475843317E+02  0.16157378511E+02  0.00000000000E+00 0. -1.
        -12    1    6    6    0    0  0.23863181297E+02 -0.12213914719E+03 -0.65444683875E+02  0.14060735879E+03  0.00000000000E+00 0.  1.
</event>
<event>
12    1  0.1596842E-001  0.1767496E+03  0.7818608E-02  0.1171517E+00
         21   -1    0    0  501  502  0.00000000000E+00  0.00000000000E+00  0.37259389379E+03  0.37259389379E+03  0.00000000000E+00 0.  1.
         21   -1    0    0  502  503 -0.00000000000E+00 -0.00000000000E+00 -0.12097812305E+03  0.12097812305E+03  0.00000000000E+00 0.  1.
         -6    2    1    2    0  503 -0.27552556260E+02 -0.17459596028E+02 -0.13275907294E+02  0.17512577653E+03  0.17154826446E+03 0.  0.
        -24    2    3    3    0    0 -0.14900876567E+01 -0.10137518341E+01  0.56800878791E+02  0.98427901664E+02  0.80364568938E+02 0.  0.
          6    2    1    2  501    0  0.27552556260E+02  0.17459596028E+02  0.26489167803E+03  0.31844624031E+03  0.17371363224E+03 0.  0.
         24    2    5    5    0    0  0.67440734746E+02  0.32859827998E+02  0.99060842188E+02  0.14712726867E+03  0.78774118414E+02 0.  0.
          5    1    5    5  501    0 -0.39888178485E+02 -0.15400231971E+02  0.16583083585E+03  0.17131897164E+03  0.47000000000E+01 0. -1.
        -13    1    6    6    0    0  0.53275295028E+01 -0.38419234445E+01  0.68435689835E+02  0.68750175197E+02  0.00000000000E+00 0.  1.
         14    1    6    6    0    0  0.62113205243E+02  0.36701751443E+02  0.30625152352E+02  0.78377093472E+02  0.00000000000E+00 0. -1.
         -5    1    3    3    0  503 -0.26062468604E+02 -0.16445844193E+02 -0.70076786085E+02  0.76697874866E+02  0.47000000000E+01 0.  1.
         13    1    4    4    0    0 -0.15742669283E+02 -0.31523058074E+02  0.54208982711E+02  0.64654068960E+02  0.00000000000E+00 0. -1.
        -14    1    4    4    0    0  0.14252581626E+02  0.30509306240E+02  0.25918960798E+01  0.33773832704E+02  0.00000000000E+00 0.  1.
</event>
<event>
12    1  0.1596842E-001  0.2193256E+03  0.7818608E-02  0.1134569E+00
         21   -1    0    0  501  502  0.00000000000E+00  0.00000000000E+00  0.94519147112E+02  0.94519147112E+02  0.00000000000E+00 0. -1.
         21   -1    0    0  502  503 -0.00000000000E+00 -0.00000000000E+00 -0.78407948449E+03  0.78407948449E+03  0.00000000000E+00 0. -1.
         -6    2    1    2    0  503  0.17467572758E+02 -0.13519862162E+03 -0.82991175477E+02  0.23359484304E+03  0.17057324557E+03 0.  0.
        -24    2    3    3    0    0  0.70100036068E+02 -0.12885307019E+03 -0.51148872020E+02  0.17157497118E+03  0.72832924367E+02 0.  0.
          6    2    1    2  501    0 -0.17467572758E+02  0.13519862162E+03 -0.60656916190E+03  0.64500378856E+03  0.17181372384E+03 0.  0.
         24    2    5    5    0    0  0.84081826967E+00  0.14896813847E+03 -0.36235835590E+03  0.39967583552E+03  0.79025199477E+02 0.  0.
          5    1    5    5  501    0 -0.18308391028E+02 -0.13769516844E+02 -0.24421080600E+03  0.24532795304E+03  0.47000000000E+01 0. -1.
        -13    1    6    6    0    0  0.41175082305E+01  0.52032434697E+02 -0.22841856548E+03  0.23430614416E+03  0.00000000000E+00 0.  1.
         14    1    6    6    0    0 -0.32766899608E+01  0.96935703770E+02 -0.13393979042E+03  0.16536969136E+03  0.00000000000E+00 0. -1.
         -5    1    3    3    0  503 -0.52632463309E+02 -0.63455514366E+01 -0.31842303457E+02  0.62019871868E+02  0.47000000000E+01 0.  1.
         11    1    4    4    0    0  0.77612976373E+02 -0.99117781192E+02 -0.60276730644E+02  0.13957576046E+03  0.00000000000E+00 0. -1.
        -12    1    4    4    0    0 -0.75129403050E+01 -0.29735288994E+02  0.91278586241E+01  0.31999210719E+02  0.00000000000E+00 0.  1.
</event>
<event>
12    1  0.1596842E-001  0.1804533E+03  0.7818608E-02  0.1167984E+00
         21   -1    0    0  501  502  0.00000000000E+00  0.00000000000E+00  0.29645217283E+03  0.29645217283E+03  0.00000000000E+00 0. -1.
         21   -1    0    0  502  503 -0.00000000000E+00 -0.00000000000E+00 -0.11467451649E+03  0.11467451649E+03  0.00000000000E+00 0. -1.
         -6    2    1    2    0  503  0.11797329642E+02 -0.60000040581E+02  0.43026134122E+02  0.18551182567E+03  0.16977693420E+03 0.  0.
        -24    2    3    3    0    0 -0.51449081093E+02 -0.21828219370E+02  0.52760743265E+02  0.11085227155E+03  0.79881480784E+02 0.  0.
          6    2    1    2  501    0 -0.11797329642E+02  0.60000040581E+02  0.13875152222E+03  0.22561486365E+03  0.16706555577E+03 0.  0.
         24    2    5    5    0    0  0.33406405278E+02  0.39569112418E+02  0.14682963570E+03  0.17513569573E+03  0.80198924099E+02 0.  0.
          5    1    5    5  501    0 -0.45203734920E+02  0.20430928162E+02 -0.80781134852E+01  0.50479167919E+02  0.47000000000E+01 0. -1.
        -13    1    6    6    0    0  0.10205300425E+02 -0.23131223194E+02  0.21928269076E+02  0.33467157452E+02  0.00000000000E+00 0.  1.
         14    1    6    6    0    0  0.23201104853E+02  0.62700335613E+02  0.12490136663E+03  0.14166853828E+03  0.00000000000E+00 0. -1.
         -5    1    3    3    0  503  0.63246410734E+02 -0.38171821211E+02 -0.97346091425E+01  0.74659554114E+02  0.47000000000E+01 0.  1.
         13    1    4    4    0    0  0.82814034758E+01 -0.33461996690E+02  0.82135009453E+01  0.35436541364E+02  0.00000000000E+00 0. -1.
        -14    1    4    4    0    0 -0.59730484568E+02  0.11633777320E+02  0.44547242320E+02  0.75415730188E+02  0.00000000000E+00 0.  1.
</event>
<event>
12    1  0.1596842E-001  0.2182599E+03  0.7818608E-02  0.1135569E+00
         21   -1    0    0  503  502  0.00000000000E+00  0.00000000000E+00  0.71312108130E+02  0.71312108130E+02  0.00000000000E+00 0. -1.
         21   -1    0    0  501  503 -0.00000000000E+00 -0.00000000000E+00 -0.10264526178E+04  0.10264526178E+04  0.00000000000E+00 0.  1.
          6    2    1    2  501    0  0.12342767739E+03 -0.43520721992E+02 -0.80326893153E+03  0.83186554376E+03  0.17213617211E+03 0.  0.
         24    2    3    3    0    0  0.13467717440E+03 -0.27077125271E+02 -0.79292489325E+03  0.80893015225E+03  0.82261733843E+02 0.  0.
         -6    2    1    2    0  502 -0.12342767739E+03  0.43520721992E+02 -0.15187157815E+03  0.26589918217E+03  0.17466812544E+03 0.  0.
        -24    2    5    5    0    0 -0.35793824917E+02  0.30757292193E+02 -0.15353509810E+03  0.17720050948E+03  0.74831713098E+02 0.  0.
          5    1    3    3  501    0 -0.11249497010E+02 -0.16443596721E+02 -0.10344038277E+02  0.22935391516E+02  0.47000000000E+01 0. -1.
        -11    1    4    4    0    0  0.11297464125E+03 -0.44870834494E+01 -0.42864067636E+03  0.44330151467E+03  0.00000000000E+00 0.  1.
         12    1    4    4    0    0  0.21702533156E+02 -0.22590041821E+02 -0.36428421690E+03  0.36562863758E+03  0.00000000000E+00 0. -1.
         -5    1    5    5    0  502 -0.87633852474E+02  0.12763429799E+02  0.16635199529E+01  0.88698672698E+02  0.47000000000E+01 0.  1.
         11    1    6    6    0    0 -0.22164323917E+00  0.37228728477E+02 -0.28058898180E+02  0.46618978076E+02  0.00000000000E+00 0. -1.
        -12    1    6    6    0    0 -0.35572181678E+02 -0.64714362837E+01 -0.12547619992E+03  0.13058153140E+03  0.00000000000E+00 0.  1.
</event>
<event>
12    1  0.1596842E-001  0.1738907E+03  0.7818608E-02  0.1174502E+00
         21   -1    0    0  503  502  0.00000000000E+00  0.00000000000E+00  0.56306480397E+03  0.56306480397E+03  0.00000000000E+00 0. -1.
         21   -1    0    0  501  503 -0.00000000000E+00 -0.00000000000E+00 -0.94555568986E+02  0.94555568986E+02  0.00000000000E+00 0. -1.
          6    2    1    2  501    0  0.34268779132E+02 -0.24649424847E+02  0.15088271633E+02  0.17199855348E+03  0.16605391621E+03 0.  0.
         24    2    3    3    0    0 -0.25980456030E+02  0.75391857497E+00 -0.33564650652E+02  0.90362182653E+02  0.79769579362E+02 0.  0.
         -6    2    1    2    0  502 -0.34268779132E+02  0.24649424847E+02  0.45342096335E+03  0.48562181948E+03  0.16868917624E+03 0.  0.
        -24    2    5    5    0    0 -0.61581966425E+02  0.54421193991E+02  0.21005783124E+03  0.23888294433E+03  0.78655983136E+02 0.  0.
          5    1    3    3  501    0  0.60249235162E+02 -0.25403343422E+02  0.48652922285E+02  0.81636370825E+02  0.47000000000E+01 0. -1.
        -11    1    4    4    0    0 -0.15823961399E+02 -0.22564355253E+02  0.17964471820E+02  0.32897874250E+02  0.00000000000E+00 0.  1.
         12    1    4    4    0    0 -0.10156494630E+02  0.23318273828E+02 -0.51529122472E+02  0.57464308403E+02  0.00000000000E+00 0. -1.
         -5    1    5    5    0  502  0.27313187292E+02 -0.29771769144E+02  0.24336313212E+03  0.24673887515E+03  0.47000000000E+01 0.  1.
         11    1    6    6    0    0 -0.43127807301E+02  0.28260806198E+02  0.19811251069E+03  0.20471259810E+03  0.00000000000E+00 0. -1.
        -12    1    6    6    0    0 -0.18454159123E+02  0.26160387793E+02  0.11945320550E+02  0.34170346230E+02  0.00000000000E+00 0.  1.
</event>
<event>
12    1  0.1596842E-001  0.1850323E+03  0.7818608E-02  0.1163097E+00
         21   -1    0    0  503  502  0.00000000000E+00  0.00000000000E+00  0.95795785140E+03  0.95795785140E+03  0.00000000000E+00 0.  1.
         21   -1    0    0  501  503 -0.00000000000E+00 -0.00000000000E+00 -0.53629202923E+02  0.53629202923E+02  0.00000000000E+00 0.  1.
          6    2    1    2  501    0  0.68132120994E+02  0.12898493711E+02  0.15924429048E+03  0.24387118864E+03  0.17119011521E+03 0.  0.
         24    2    3    3    0    0  0.59648968973E+02 -0.55988454159E+02  0.90223501194E+02  0.14587458253E+03  0.80289520870E+02 0.  0.
         -6    2    1    2    0  502 -0.68132120994E+02 -0.12898493711E+02  0.74508435800E+03  0.76771586569E+03  0.17154764015E+03 0.  0.
        -24    2    5    5    0    0  0.24820142536E+02  0.19860536244E+02  0.37046065094E+03  0.38031647329E+03  0.79931505588E+02 0.  0.
          5    1    3    3  501    0  0.84831520208E+01  0.68886947870E+02  0.69020789286E+02  0.97996606109E+02  0.47000000000E+01 0. -1.
        -11    1    4    4    0    0  0.25169453832E+02  0.19081390155E+02  0.30769526350E+02  0.44094949918E+02  0.00000000000E+00 0.  1.
         12    1    4    4    0    0  0.34479515141E+02 -0.75069844314E+02  0.59453974844E+02  0.10177963261E+03  0.00000000000E+00 0. -1.
         -5    1    5    5    0  502 -0.92952263531E+02 -0.32759029955E+02  0.37462370706E+03  0.38739939240E+03  0.47000000000E+01 0.  1.
         13    1    6    6    0    0 -0.17982650370E+02  0.55964979455E+01  0.26425198644E+03  0.26492226943E+03  0.00000000000E+00 0. -1.
        -14    1    6    6    0    0  0.42802792906E+02  0.14264038298E+02  0.10620866450E+03  0.11539420385E+03  0.00000000000E+00 0.  1.
</event>
<event>
12    1  0.1596842E-001  0.1775408E+03  0.7818608E-02  0.1170887E+00
         21   -1    0    0  501  502  0.00000000000E+00  0.00000000000E+00  0.45930755781E+03  0.45930755781E+03  0.00000000000E+00 0.  1.
         21   -1    0    0  502  503 -0.00000000000E+00 -0.00000000000E+00 -0.72358631335E+02  0.72358631335E+02  0.00000000000E+00 0.  1.
         -6    2    1    2    0  503 -0.30335904275E+02  0.29934984783E+02  0.26045990930E+03  0.31367485162E+03  0.16951748519E+03 0.  0.
        -24    2    3    3    0    0 -0.13959045889E+02  0.83729688502E+02  0.16458582768E+03  0.20242737450E+03  0.81748587613E+02 0.  0.
          6    2    1    2  501    0  0.30335904275E+02 -0.29934984783E+02  0.12648901717E+03  0.21799133752E+03  0.17234959056E+03 0.  0.
         24    2    5    5    0    0  0.61068475700E+02 -0.41095061475E+00  0.18948628522E+02  0.10221921337E+03  0.79750795943E+02 0.  0.
          5    1    5    5  501    0 -0.30732571425E+02 -0.29524034168E+02  0.10754038865E+03  0.11577212415E+03  0.47000000000E+01 0. -1.
        -11    1    6    6    0    0  0.50966564050E+01  0.25729374473E+02 -0.16508088722E+02  0.30991831352E+02  0.00000000000E+00 0.  1.
         12    1    6    6    0    0  0.55971819295E+02 -0.26140325088E+02  0.35456717244E+02  0.71227382014E+02  0.00000000000E+00 0. -1.
         -5    1    3    3    0  503 -0.16376858386E+02 -0.53794703719E+02  0.95874081618E+02  0.11124747712E+03  0.47000000000E+01 0.  1.
         13    1    4    4    0    0 -0.21243499171E+01  0.46144160102E+02  0.16283132459E+02  0.48978942177E+02  0.00000000000E+00 0. -1.
        -14    1    4    4    0    0 -0.11834695972E+02  0.37585528399E+02  0.14830269522E+03  0.15344843233E+03  0.00000000000E+00 0.  1.
</event>
<event>
12    1  0.1596842E-001  0.1726439E+03  0.7818608E-02  0.1175234E+00
         21   -1    0    0  501  502  0.00000000000E+00  0.00000000000E+00  0.10345113228E+04  0.10345113228E+04  0.00000000000E+00 0.  1.
         21   -1    0    0  502  503 -0.00000000000E+00 -0.00000000000E+00 -0.42013998684E+02  0.42013998684E+02  0.00000000000E+00 0.  1.
         -6    2    1    2    0  503 -0.12682091241E+02  0.67932298654E+01  0.19410141750E+03  0.25977159576E+03  0.17204341975E+03 0.  0.
        -24    2    3    3    0    0  0.56332509259E+02  0.21213091389E+02  0.13287778290E+03  0.16627629683E+03  0.79799466503E+02 0.  0.
          6    2    1    2  501    0  0.12682091241E+02 -0.67932298654E+01  0.79839590657E+03  0.81675372568E+03  0.17159149561E+03 0.  0.
         24    2    5    5    0    0  0.35825994116E+02  0.15634425736E+02  0.76872487616E+03  0.77269580900E+03  0.67771239485E+02 0.  0.
          5    1    5    5  501    0 -0.23143902875E+02 -0.22427655601E+02  0.29671030417E+02  0.44057916678E+02  0.47000000000E+01 0. -1.
        -11    1    6    6    0    0  0.12406205090E+02  0.23272787624E+02  0.97056363522E+02  0.10057571411E+03  0.00000000000E+00 0.  1.
         12    1    6    6    0    0  0.23419789026E+02 -0.76383618883E+01  0.67166851263E+03  0.67212009489E+03  0.00000000000E+00 0. -1.
         -5    1    3    3    0  503 -0.69014600501E+02 -0.14419861524E+02  0.61223634605E+02  0.93495298934E+02  0.47000000000E+01 0.  1.
         13    1    4    4    0    0  0.96620367147E+01  0.44208672521E+02  0.81120656240E+02  0.92888764382E+02  0.00000000000E+00 0. -1.
        -14    1    4    4    0    0  0.46670472545E+02 -0.22995581131E+02  0.51757126657E+02  0.73387532448E+02  0.00000000000E+00 0.  1.
</event>
<event>
12    1  0.1596842E-001  0.1750023E+03  0.7818608E-02  0.1173725E+00
         21   -1    0    0  501  502  0.00000000000E+00  0.00000000000E+00  0.22829201672E+03  0.22829201672E+03  0.00000000000E+00 0.  1.
         21   -1    0    0  502  503 -0.00000000000E+00 -0.00000000000E+00 -0.13333116591E+03  0.13333116591E+03  0.00000000000E+00 0. -1.
         -6    2    1    2    0  503  0.24228459964E+01  0.32278735791E+02  0.23908879204E+02  0.17274707898E+03  0.16799443986E+03 0.  0.
        -24    2    3    3    0    0 -0.31603815130E+02  0.15390668729E+02 -0.46483743517E+02  0.92620729943E+02  0.71987411324E+02 0.  0.
          6    2    1    2  501    0 -0.24228459964E+01 -0.32278735791E+02  0.71051971606E+02  0.18887610364E+03  0.17198259473E+03 0.  0.
         24    2    5    5    0    0 -0.17521194158E+02  0.27660149625E+02 -0.10136886802E+02  0.86727433404E+02  0.79666900962E+02 0.  0.
          5    1    5    5  501    0  0.15098348161E+02 -0.59938885416E+02  0.81188858407E+02  0.10214867024E+03  0.47000000000E+01 0. -1.
        -13    1    6    6    0    0 -0.12383088109E+02 -0.21983847231E+02  0.16507136942E+02  0.30151550213E+02  0.00000000000E+00 0.  1.
         14    1    6    6    0    0 -0.51381060491E+01  0.49643996857E+02 -0.26644023744E+02  0.56575883192E+02  0.00000000000E+00 0. -1.
         -5    1    3    3    0  503  0.34026661126E+02  0.16888067061E+02  0.70392622721E+02  0.80126349037E+02  0.47000000000E+01 0.  1.
         11    1    4    4    0    0 -0.32006083999E+02  0.31909180745E+02 -0.57219886865E+02  0.72915709429E+02  0.00000000000E+00 0. -1.
        -12    1    4    4    0    0  0.40226886903E+00 -0.16518512015E+02  0.10736143348E+02  0.19705020513E+02  0.00000000000E+00 0.  1.
</event>
<event>
12    1  0.1596842E-001  0.1798953E+03  0.7818608E-02  0.1168268E+00
         21   -1    0    0  501  502  0.00000000000E+00  0.00000000000E+00  0.31047379369E+03  0.31047379369E+03  0.00000000000E+00 0. -1.
         21   -1    0    0  502  503 -0.00000000000E+00 -0.00000000000E+00 -0.12079269173E+03  0.12079269173E+03  0.00000000000E+00 0. -1.
         -6    2    1    2    0  503  0.19443285148E+02 -0.43282836923E+02  0.13287698431E+02  0.18038541445E+03  0.17352489593E+03 0.  0.
        -24    2    3    3    0    0  0.29514280203E+02 -0.93347877130E+02  0.15896576145E+02  0.12903534692E+03  0.82537874471E+02 0.  0.
          6    2    1    2  501    0 -0.19443285148E+02  0.43282836923E+02  0.17639340353E+03  0.25088107097E+03  0.17197451454E+03 0.  0.
         24    2    5    5    0    0 -0.24379817233E+02  0.32375496458E+02  0.18036189944E+02  0.92002386054E+02  0.80601405898E+02 0.  0.
          5    1    5    5  501    0  0.49365320853E+01  0.10907340465E+02  0.15835721359E+03  0.15887868492E+03  0.47000000000E+01 0. -1.
        -11    1    6    6    0    0  0.18290161226E+02 -0.15579596952E+02 -0.35340647305E+01  0.24284634080E+02  0.00000000000E+00 0.  1.
         12    1    6    6    0    0 -0.42669978459E+02  0.47955093410E+02  0.21570254675E+02  0.67717751974E+02  0.00000000000E+00 0. -1.
         -5    1    3    3    0  503 -0.10070995055E+02  0.50065040207E+02 -0.26088777141E+01  0.51350067529E+02  0.47000000000E+01 0.  1.
         13    1    4    4    0    0  0.28369973915E+02 -0.63729807570E+02  0.48507876802E+02  0.84966804722E+02  0.00000000000E+00 0. -1.
        -14    1    4    4    0    0  0.11443062881E+01 -0.29618069560E+02 -0.32611300656E+02  0.44068542202E+02  0.00000000000E+00 0.  1.
</event>
<event>
12    1  0.1596842E-001  0.1856180E+03  0.7818608E-02  0.1164205E+00
         21   -1    0    0  503  502  0.00000000000E+00  0.00000000000E+00  0.19306276290E+04  0.19306276290E+04  0.00000000000E+00 0. -1.
         21   -1    0    0  501  503 -0.00000000000E+00 -0.00000000000E+00 -0.19305986330E+02  0.19305986330E+02  0.00000000000E+00 0. -1.
          6    2    1    2  501    0 -0.17823953583E+02 -0.44051013617E+02  0.61305339434E+03  0.63846326280E+03  0.17187986651E+03 0.  0.
         24    2    3    3    0    0 -0.55650342298E+02  0.19435273596E+02  0.42230186667E+03  0.43384268795E+03  0.80036996634E+02 0.  0.
         -6    2    1    2    0  502  0.17823953583E+02  0.44051013617E+02  0.12982682483E+04  0.13114703525E+04  0.17943203676E+03 0.  0.
        -24    2    5    5    0    0 -0.84391446831E+01  0.83765383345E+02  0.11564954230E+04  0.11618421282E+04  0.72853338890E+02 0.  0.
          5    1    3    3  501    0  0.37826388715E+02 -0.63486287213E+02  0.19075152766E+03  0.20462057485E+03  0.47000000000E+01 0. -1.
        -11    1    4    4    0    0 -0.11798308905E+02  0.43473381072E+02  0.26443939033E+03  0.26824862743E+03  0.00000000000E+00 0.  1.
         12    1    4    4    0    0 -0.43852033394E+02 -0.24038107477E+02  0.15786247634E+03  0.16559406052E+03  0.00000000000E+00 0. -1.
         -5    1    5    5    0  502  0.26263098266E+02 -0.39714369728E+02  0.14177282535E+03  0.14962822428E+03  0.47000000000E+01 0.  1.
         13    1    6    6    0    0 -0.34392308955E+02  0.74209737386E+02  0.94770437803E+03  0.95122736723E+03  0.00000000000E+00 0. -1.
        -14    1    6    6    0    0  0.25953164271E+02  0.95556459588E+01  0.20879104494E+03  0.21061476100E+03  0.00000000000E+00 0.  1.
</event>
<event>
12    1  0.1596842E-001  0.1862095E+03  0.7818608E-02  0.1162298E+00
         21   -1    0    0  503  502  0.00000000000E+00  0.00000000000E+00  0.42087007075E+03  0.42087007075E+03  0.00000000000E+00 0.  1.
         21   -1    0    0  501  503 -0.00000000000E+00 -0.00000000000E+00 -0.47864997718E+03  0.47864997718E+03  0.00000000000E+00 0.  1.
          6    2    1    2  501    0  0.67691236212E+02 -0.21045976235E+02 -0.43850280703E+03  0.47640183448E+03  0.17218873233E+03 0.  0.
         24    2    3    3    0    0  0.52812834443E+02  0.48661898698E+02 -0.20937218307E+03  0.23639456895E+03  0.82997019941E+02 0.  0.
         -6    2    1    2    0  502 -0.67691236212E+02  0.21045976235E+02  0.38072290061E+03  0.42311821345E+03  0.17045251225E+03 0.  0.
        -24    2    5    5    0    0  0.24222865433E+00  0.15333479011E+02  0.71296477101E+02  0.10623591695E+03  0.77250942709E+02 0.  0.
          5    1    3    3  501    0  0.14878401769E+02 -0.69707874934E+02 -0.22913062396E+03  0.24000726553E+03  0.47000000000E+01 0. -1.
        -11    1    4    4    0    0  0.53701333472E+01 -0.21709283160E+02 -0.67130570127E+02  0.70757648018E+02  0.00000000000E+00 0.  1.
         12    1    4    4    0    0  0.47442701096E+02  0.70371181858E+02 -0.14224161294E+03  0.16563692093E+03  0.00000000000E+00 0. -1.
         -5    1    5    5    0  502 -0.67933464866E+02  0.57124972245E+01  0.30942642351E+03  0.31688229650E+03  0.47000000000E+01 0.  1.
         13    1    6    6    0    0 -0.35816449918E+02 -0.25021427348E+01  0.20174262394E+02  0.41183487785E+02  0.00000000000E+00 0. -1.
        -14    1    6    6    0    0  0.36058678572E+02  0.17835621746E+02  0.51122214706E+02  0.65052429162E+02  0.00000000000E+00 0.  1.
</event>
<event>
12    1  0.1596842E-001  0.2019777E+03  0.7818608E-02  0.1148834E+00
         21   -1    0    0  501  502  0.00000000000E+00  0.00000000000E+00  0.27895098137E+03  0.27895098137E+03  0.00000000000E+00 0.  1.
         21   -1    0    0  502  503 -0.00000000000E+00 -0.00000000000E+00 -0.27238167142E+03  0.27238167142E+03  0.00000000000E+00 0.  1.
         -6    2    1    2    0  503  0.92100060664E+02 -0.29124903324E+02 -0.18619823678E+03  0.27470854518E+03  0.17738184869E+03 0.  0.
        -24    2    3    3    0    0  0.46793384266E+02 -0.24883336507E+02 -0.20455434861E+03  0.22541632818E+03  0.78493555336E+02 0.  0.
          6    2    1    2  501    0 -0.92100060664E+02  0.29124903324E+02  0.19276754673E+03  0.27662410761E+03  0.17329422573E+03 0.  0.
         24    2    5    5    0    0 -0.55329021419E+02  0.51179319684E+02  0.36929346710E+02  0.11492642304E+03  0.78509124887E+02 0.  0.
          5    1    5    5  501    0 -0.36771039246E+02 -0.22054416360E+02  0.15583820002E+03  0.16169768457E+03  0.47000000000E+01 0. -1.
        -11    1    6    6    0    0  0.15275518656E+02  0.30561826245E+02  0.19487000938E+02  0.39333317928E+02  0.00000000000E+00 0.  1.
         12    1    6    6    0    0 -0.70604540075E+02  0.20617493439E+02  0.17442345772E+02  0.75593105115E+02  0.00000000000E+00 0. -1.
         -5    1    3    3    0  503  0.45306676399E+02 -0.42415668166E+01  0.18356111825E+02  0.49292216999E+02  0.47000000000E+01 0.  1.
         13    1    4    4    0    0 -0.21608774131E+02 -0.51880220782E+01 -0.66105362743E+02  0.69740760505E+02  0.00000000000E+00 0. -1.
        -14    1    4    4    0    0  0.68402158397E+02 -0.19695314429E+02 -0.13844898587E+03  0.15567556768E+03  0.00000000000E+00 0.  1.
</event>
<event>
12    1  0.1596842E-001  0.2223451E+03  0.7818608E-02  0.1135513E+00
         21   -1    0    0  501  502  0.00000000000E+00  0.00000000000E+00  0.64166138905E+02  0.64166138905E+02  0.00000000000E+00 0.  1.
         21   -1    0    0  502  503 -0.00000000000E+00 -0.00000000000E+00 -0.94173455969E+03  0.94173455969E+03  0.00000000000E+00 0.  1.
         -6    2    1    2    0  503  0.32123664042E+02  0.13454759910E+03 -0.67402950292E+03  0.70446174548E+03  0.15104831620E+03 0.  0.
        -24    2    3    3    0    0 -0.32166673471E+02  0.95824388894E+02 -0.44293831125E+03  0.46144330303E+03  0.80737636484E+02 0.  0.
          6    2    1    2  501    0 -0.32123664042E+02 -0.13454759910E+03 -0.20353891787E+03  0.30143895311E+03  0.17407574545E+03 0.  0.
         24    2    5    5    0    0  0.45239924468E+02 -0.82576448515E+02 -0.15004684926E+03  0.19387680027E+03  0.78794898919E+02 0.  0.
          5    1    5    5  501    0 -0.77363588510E+02 -0.51971150583E+02 -0.53492068604E+02  0.10756215284E+03  0.47000000000E+01 0. -1.
        -13    1    6    6    0    0  0.45326998415E+02 -0.88896875700E+02 -0.92755913572E+02  0.13623821342E+03  0.00000000000E+00 0.  1.
         14    1    6    6    0    0 -0.87073946471E-01  0.63204271853E+01 -0.57290935692E+02  0.57638586850E+02  0.00000000000E+00 0. -1.
         -5    1    3    3    0  503  0.64290337514E+02  0.38723210204E+02 -0.23109119167E+03  0.24301844245E+03  0.47000000000E+01 0.  1.
         13    1    4    4    0    0  0.20412607303E+02  0.54303145229E+01 -0.12435040308E+03  0.12613162014E+03  0.00000000000E+00 0. -1.
        -14    1    4    4    0    0 -0.52579280774E+02  0.90394074371E+02 -0.31858790817E+03  0.33531168289E+03  0.00000000000E+00 0.  1.
</event>
<event>
12    1  0.1596842E-001  0.3208793E+03  0.7818608E-02  0.1076425E+00
         21   -1    0    0  503  502  0.00000000000E+00  0.00000000000E+00  0.74273600135E+03  0.74273600135E+03  0.00000000000E+00 0. -1.
         21   -1    0    0  501  503 -0.00000000000E+00 -0.00000000000E+00 -0.16282257821E+03  0.16282257821E+03  0.00000000000E+00 0.  1.
          6    2    1    2  501    0 -0.18852589649E+03  0.19447002650E+03  0.96612079546E+02  0.32543469492E+03  0.15235892454E+03 0.  0.
         24    2    3    3    0    0 -0.59293315875E+02  0.12896158832E+03  0.74102976533E+02  0.17873375735E+03  0.79421132678E+02 0.  0.
         -6    2    1    2    0  502  0.18852589649E+03 -0.19447002650E+03  0.48330134359E+03  0.58012388464E+03  0.17205501433E+03 0.  0.
        -24    2    5    5    0    0  0.67506325554E+02 -0.14182642700E+03  0.19262204675E+03  0.26085342134E+03  0.79179638467E+02 0.  0.
          5    1    3    3  501    0 -0.12923258061E+03  0.65508438182E+02  0.22509103013E+02  0.14670093757E+03  0.47000000000E+01 0. -1.
        -13    1    4    4    0    0 -0.78202813574E+01  0.34673937856E+02 -0.15566747759E+02  0.38804154452E+02  0.00000000000E+00 0.  1.
         14    1    4    4    0    0 -0.51473034517E+02  0.94287650460E+02  0.89669724292E+02  0.13992960289E+03  0.00000000000E+00 0. -1.
         -5    1    5    5    0  502  0.12101957094E+03 -0.52643599498E+02  0.29067929685E+03  0.31927046330E+03  0.47000000000E+01 0.  1.
         13    1    6    6    0    0  0.45636067586E+02 -0.88688736669E+02  0.17380069550E+03  0.20038718630E+03  0.00000000000E+00 0. -1.
        -14    1    6    6    0    0  0.21870257968E+02 -0.53137690330E+02  0.18821351242E+02  0.60466235039E+02  0.00000000000E+00 0.  1.
</event>
<event>
12    1  0.1596842E-001  0.1807223E+03  0.7818608E-02  0.1167120E+00
         21   -1    0    0  503  502  0.00000000000E+00  0.00000000000E+00  0.97875782395E+02  0.97875782395E+02  0.00000000000E+00 0.  1.
         21   -1    0    0  501  503 -0.00000000000E+00 -0.00000000000E+00 -0.36260442118E+03  0.36260442118E+03  0.00000000000E+00 0.  1.
          6    2    1    2  501    0  0.25148984159E+02  0.47782622161E+02 -0.19748123892E+03  0.26765185446E+03  0.17240366900E+03 0.  0.
         24    2    3    3    0    0 -0.33556962137E+02  0.70414164163E+02 -0.85843122916E+02  0.13941873171E+03  0.77358365921E+02 0.  0.
         -6    2    1    2    0  502 -0.25148984159E+02 -0.47782622161E+02 -0.67247399865E+02  0.19282834912E+03  0.17246712455E+03 0.  0.
        -24    2    5    5    0    0 -0.36710454003E+02 -0.71475354494E+02 -0.99110736483E+02  0.15120653548E+03  0.81142433730E+02 0.  0.
          5    1    3    3  501    0  0.58705946296E+02 -0.22631542002E+02 -0.11163811601E+03  0.12823312275E+03  0.47000000000E+01 0. -1.
        -11    1    4    4    0    0 -0.32928534224E+02  0.76126473823E+02 -0.38002899335E+02  0.91234580838E+02  0.00000000000E+00 0.  1.
         12    1    4    4    0    0 -0.62842791292E+00 -0.57123096596E+01 -0.47840223582E+02  0.48184150876E+02  0.00000000000E+00 0. -1.
         -5    1    5    5    0  502  0.11561469844E+02  0.23692732333E+02  0.31863336617E+02  0.41621813641E+02  0.47000000000E+01 0.  1.
         13    1    6    6    0    0 -0.38392431185E+02 -0.11764105122E+02 -0.78218782405E+02  0.87923551239E+02  0.00000000000E+00 0. -1.
        -14    1    6    6    0    0  0.16819771819E+01 -0.59711249372E+02 -0.20891954078E+02  0.63282984238E+02  0.00000000000E+00 0.  1.
</event>
<event>
12    1  0.1596842E-001  0.1891631E+03  0.7818608E-02  0.1159834E+00
         21   -1    0    0  503  502  0.00000000000E+00  0.00000000000E+00  0.81356214274E+03  0.81356214274E+03  0.00000000000E+00 0.  1.
         21   -1    0    0  501  503 -0.00000000000E+00 -0.00000000000E+00 -0.94323264192E+02  0.94323264192E+02  0.00000000000E+00 0.  1.
          6    2    1    2  501    0  0.67450819681E+02 -0.24401351104E+02  0.24759790286E+02  0.18810495576E+03  0.17212027235E+03 0.  0.
         24    2    3    3    0    0 -0.30239886637E+02 -0.20326251228E+02  0.11382772776E+02  0.89306599813E+02  0.80737191066E+02 0.  0.
         -6    2    1    2    0  502 -0.67450819681E+02  0.24401351104E+02  0.69447908826E+03  0.71978045117E+03  0.17503615298E+03 0.  0.
        -24    2    5    5    0    0  0.17863167708E+02 -0.28830234148E+02  0.28147532375E+03  0.29468484120E+03  0.80377376142E+02 0.  0.
          5    1    3    3  501    0  0.97690706318E+02 -0.40750998760E+01  0.13377017511E+02  0.98798355945E+02  0.47000000000E+01 0. -1.
        -13    1    4    4    0    0  0.34660994471E+01 -0.26486605399E+02 -0.26913387612E+02  0.37919448093E+02  0.00000000000E+00 0.  1.
         14    1    4    4    0    0 -0.33705986084E+02  0.61603541708E+01  0.38296160388E+02  0.51387151720E+02  0.00000000000E+00 0. -1.
         -5    1    5    5    0  502 -0.85313987389E+02  0.53231585252E+02  0.41300376451E+03  0.42509560997E+03  0.47000000000E+01 0.  1.
         11    1    6    6    0    0  0.12622624128E+02 -0.20225096248E+02  0.15319812278E+02  0.28338698036E+02  0.00000000000E+00 0. -1.
        -12    1    6    6    0    0  0.52405435799E+01 -0.86051378995E+01  0.26615551147E+03  0.26634614317E+03  0.00000000000E+00 0.  1.
</event>
<event>
12    1  0.1596842E-001  0.1859319E+03  0.7818608E-02  0.1162245E+00
         21   -1    0    0  503  502  0.00000000000E+00  0.00000000000E+00  0.49448688720E+02  0.49448688720E+02  0.00000000000E+00 0.  1.
         21   -1    0    0  501  503 -0.00000000000E+00 -0.00000000000E+00 -0.11438927036E+04  0.11438927036E+04  0.00000000000E+00 0. -1.
          6    2    1    2  501    0  0.14934189957E+02  0.69028941672E+02 -0.91945914645E+03  0.93801733569E+03  0.17170723704E+03 0.  0.
         24    2    3    3    0    0 -0.19779985104E+02  0.71577520274E+02 -0.33354421780E+03  0.35105058806E+03  0.80437434910E+02 0.  0.
         -6    2    1    2    0  502 -0.14934189957E+02 -0.69028941672E+02 -0.17498486838E+03  0.25532405658E+03  0.17199606068E+03 0.  0.
        -24    2    5    5    0    0  0.33246669982E+02 -0.34803727833E+02 -0.17232560895E+03  0.19597827166E+03  0.79967036513E+02 0.  0.
          5    1    3    3  501    0  0.34714175061E+02 -0.25485786020E+01 -0.58591492865E+03  0.58696674763E+03  0.47000000000E+01 0. -1.
        -13    1    4    4    0    0 -0.51820303942E+01  0.10922945849E+02 -0.38020334196E+00  0.12095814963E+02  0.00000000000E+00 0.  1.
         14    1    4    4    0    0 -0.14597954710E+02  0.60654574425E+02 -0.33316401445E+03  0.33895477310E+03  0.00000000000E+00 0. -1.
         -5    1    5    5    0  502 -0.48180859939E+02 -0.34225213839E+02 -0.26592594339E+01  0.59345784918E+02  0.47000000000E+01 0.  1.
         13    1    6    6    0    0 -0.11793655487E+02  0.13392311903E+02 -0.83222159587E+02  0.85113877682E+02  0.00000000000E+00 0. -1.
        -14    1    6    6    0    0  0.45040325469E+02 -0.48196039736E+02 -0.89103449364E+02  0.11086439398E+03  0.00000000000E+00 0.  1.
</event>
<event>
12    1  0.1596842E-001  0.1732744E+03  0.7818608E-02  0.1174952E+00
         21   -1    0    0  503  502  0.00000000000E+00  0.00000000000E+00  0.52195816743E+03  0.52195816743E+03  0.00000000000E+00 0.  1.
         21   -1    0    0  501  503 -0.00000000000E+00 -0.00000000000E+00 -0.70600323288E+02  0.70600323288E+02  0.00000000000E+00 0.  1.
          6    2    1    2  501    0 -0.10203674893E+02 -0.23034297787E+02  0.96172365989E+02  0.19817451880E+03  0.17143314168E+03 0.  0.
         24    2    3    3    0    0 -0.73783968627E+01 -0.81424184866E+02  0.79105722307E+02  0.13709488688E+03  0.76504601733E+02 0.  0.
         -6    2    1    2    0  502  0.10203674893E+02  0.23034297787E+02  0.35518547815E+03  0.39438397191E+03  0.16955028622E+03 0.  0.
        -24    2    5    5    0    0 -0.37901347031E+02  0.26099939558E+01  0.94089390054E+02  0.12806742616E+03  0.78135319463E+02 0.  0.
          5    1    3    3  501    0 -0.28252780301E+01  0.58389887079E+02  0.17066643682E+02  0.61079631921E+02  0.47000000000E+01 0. -1.
        -11    1    4    4    0    0 -0.41885383762E+02 -0.38596140865E+02  0.41318193648E+02  0.70365052327E+02  0.00000000000E+00 0.  1.
         12    1    4    4    0    0  0.34506986899E+02 -0.42828044001E+02  0.37787528658E+02  0.66729834556E+02  0.00000000000E+00 0. -1.
         -5    1    5    5    0  502  0.48105021923E+02  0.20424303831E+02  0.26109608809E+03  0.26631654575E+03  0.47000000000E+01 0.  1.
         11    1    6    6    0    0 -0.14776258654E+01 -0.12685090525E+02 -0.10329535327E+02  0.16425413234E+02  0.00000000000E+00 0. -1.
        -12    1    6    6    0    0 -0.36423721165E+02  0.15295084480E+02  0.10441892538E+03  0.11164201293E+03  0.00000000000E+00 0.  1.
</event>
<event>
12    1  0.1596842E-001  0.1740784E+03  0.7818608E-02  0.1174135E+00
         21   -1    0    0  503  502  0.00000000000E+00  0.00000000000E+00  0.51358666529E+03  0.51358666529E+03  0.00000000000E+00 0.  1.
         21   -1    0    0  501  503 -0.00000000000E+00 -0.00000000000E+00 -0.62911878926E+02  0.62911878926E+02  0.00000000000E+00 0.  1.
          6    2    1    2  501    0  0.17798542746E+02  0.14104279023E+02  0.14903368350E+03  0.22916005616E+03  0.17259076949E+03 0.  0.
         24    2    3    3    0    0  0.25566938704E+02 -0.41922294583E+01  0.78128083723E+01  0.86469706910E+02  0.82126287484E+02 0.  0.
         -6    2    1    2    0  502 -0.17798542746E+02 -0.14104279023E+02  0.30164110287E+03  0.34733848806E+03  0.17070720997E+03 0.  0.
        -24    2    5    5    0    0  0.16048136150E+02  0.18979757751E+02  0.28581477423E+03  0.29721151089E+03  0.77632616602E+02 0.  0.
          5    1    3    3  501    0 -0.77683959580E+01  0.18296508481E+02  0.14122087512E+03  0.14269034925E+03  0.47000000000E+01 0. -1.
        -11    1    4    4    0    0 -0.22324451526E+02  0.16134101913E-01  0.26711903980E+02  0.34812457691E+02  0.00000000000E+00 0.  1.
         12    1    4    4    0    0  0.47891390230E+02 -0.42083635602E+01 -0.18899095608E+02  0.51657249218E+02  0.00000000000E+00 0. -1.
         -5    1    5    5    0  502 -0.33846678896E+02 -0.33084036774E+02  0.15826328638E+02  0.50126977165E+02  0.47000000000E+01 0.  1.
         13    1    6    6    0    0 -0.29095824813E+02  0.94066944743E+01  0.67958722555E+02  0.74521412318E+02  0.00000000000E+00 0. -1.
        -14    1    6    6    0    0  0.45143960963E+02  0.95730632771E+01  0.21785605168E+03  0.22269009858E+03  0.00000000000E+00 0.  1.
</event>
<event>
12    1  0.1596842E-001  0.2143847E+03  0.7818608E-02  0.1138169E+00
         21   -1    0    0  503  502  0.00000000000E+00  0.00000000000E+00  0.76466205865E+02  0.76466205865E+02  0.00000000000E+00 0. -1.
         21   -1    0    0  501  503 -0.00000000000E+00 -0.00000000000E+00 -0.98923822827E+03  0.98923822827E+03  0.00000000000E+00 0.  1.
          6    2    1    2  501    0  0.99441033610E+02 -0.82310865905E+02 -0.79025762500E+03  0.81878220334E+03  0.17097831683E+03 0.  0.
         24    2    3    3    0    0  0.10407107238E+03 -0.11040499524E+03 -0.53533931186E+03  0.56223561159E+03  0.80626627379E+02 0.  0.
         -6    2    1    2    0  502 -0.99441033610E+02  0.82310865905E+02 -0.12251439741E+03  0.24692223080E+03  0.17116428564E+03 0.  0.
        -24    2    5    5    0    0 -0.12770143358E+03  0.61393147692E+02 -0.56149501622E+02  0.17167204452E+03  0.79004744254E+02 0.  0.
          5    1    3    3  501    0 -0.46300387739E+01  0.28094129337E+02 -0.25491831314E+03  0.25654659175E+03  0.47000000000E+01 0. -1.
        -11    1    4    4    0    0  0.27075887885E+02 -0.45370537314E+02 -0.32177897092E+03  0.32608786468E+03  0.00000000000E+00 0.  1.
         12    1    4    4    0    0  0.76995184499E+02 -0.65034457927E+02 -0.21356034093E+03  0.23614774691E+03  0.00000000000E+00 0. -1.
         -5    1    5    5    0  502  0.28260399972E+02  0.20917718213E+02 -0.66364895787E+02  0.75250186276E+02  0.47000000000E+01 0.  1.
         11    1    6    6    0    0 -0.11527548424E+03  0.63959891055E+02 -0.72911011190E+02  0.15064966141E+03  0.00000000000E+00 0. -1.
        -12    1    6    6    0    0 -0.12425949344E+02 -0.25667433632E+01  0.16761509568E+02  0.21022383110E+02  0.00000000000E+00 0.  1.
</event>
<event>
12    1  0.1596842E-001  0.1883595E+03  0.7818608E-02  0.1160808E+00
         21   -1    0    0  501  502  0.00000000000E+00  0.00000000000E+00  0.26594656421E+02  0.26594656421E+02  0.00000000000E+00 0. -1.
         21   -1    0    0  502  503 -0.00000000000E+00 -0.00000000000E+00 -0.13211322290E+04  0.13211322290E+04  0.00000000000E+00 0.  1.
         -6    2    1    2    0  503  0.51803495632E+02  0.53781282626E+02 -0.72131374140E+03  0.74550173166E+03  0.17292567724E+03 0.  0.
        -24    2    3    3    0    0 -0.48581079651E+01  0.86080651171E+02 -0.50705723937E+03  0.52148895258E+03  0.86082541429E+02 0.  0.
          6    2    1    2  501    0 -0.51803495632E+02 -0.53781282626E+02 -0.57322383115E+03  0.60222515374E+03  0.16885954718E+03 0.  0.
         24    2    5    5    0    0 -0.90231991778E+02 -0.73720653538E+02 -0.45037151087E+03  0.47188287193E+03  0.79135326611E+02 0.  0.
          5    1    5    5  501    0  0.38428496146E+02  0.19939370911E+02 -0.12285232028E+03  0.13034228181E+03  0.47000000000E+01 0. -1.
        -11    1    6    6    0    0 -0.26413028670E+02 -0.47238646119E+01 -0.23970031029E+03  0.24119743309E+03  0.00000000000E+00 0.  1.
         12    1    6    6    0    0 -0.63818963109E+02 -0.68996788926E+02 -0.21067120059E+03  0.23068543884E+03  0.00000000000E+00 0. -1.
         -5    1    3    3    0  503  0.56661603597E+02 -0.32299368545E+02 -0.21425650203E+03  0.22401277908E+03  0.47000000000E+01 0.  1.
         11    1    4    4    0    0 -0.27991106424E+02  0.97115667744E+01 -0.26425154351E+03  0.26590730494E+03  0.00000000000E+00 0. -1.
        -12    1    4    4    0    0  0.23132998459E+02  0.76369084397E+02 -0.24280569586E+03  0.25558164764E+03  0.00000000000E+00 0.  1.
</event>
<event>
12    1  0.1596842E-001  0.2029336E+03  0.7818608E-02  0.1147503E+00
         21   -1    0    0  501  502  0.00000000000E+00  0.00000000000E+00  0.18943028658E+03  0.18943028658E+03  0.00000000000E+00 0.  1.
         21   -1    0    0  502  503 -0.00000000000E+00 -0.00000000000E+00 -0.22948731534E+03  0.22948731534E+03  0.00000000000E+00 0.  1.
         -6    2    1    2    0  503  0.40317429842E+01  0.10553608123E+03 -0.70316446128E+02  0.21477066633E+03  0.17328565182E+03 0.  0.
        -24    2    3    3    0    0  0.99536006606E+01  0.12852203604E+03 -0.96017874956E+02  0.17947086519E+03  0.79833396680E+02 0.  0.
          6    2    1    2  501    0 -0.40317429842E+01 -0.10553608123E+03  0.30259417365E+02  0.20414693560E+03  0.17206457968E+03 0.  0.
         24    2    5    5    0    0  0.16176925538E+01 -0.92508600417E+02 -0.42595011091E+02  0.12977295410E+03  0.80412850749E+02 0.  0.
          5    1    5    5  501    0 -0.56494355380E+01 -0.13027480812E+02  0.72854428456E+02  0.74373981498E+02  0.47000000000E+01 0. -1.
        -13    1    6    6    0    0 -0.10219027103E+02 -0.71528120489E+02  0.90181419421E+01  0.72815021937E+02  0.00000000000E+00 0.  1.
         14    1    6    6    0    0  0.11836719657E+02 -0.20980479929E+02 -0.51613153033E+02  0.56957932163E+02  0.00000000000E+00 0. -1.
         -5    1    3    3    0  503 -0.59218576765E+01 -0.22985954810E+02  0.25701428828E+02  0.35299801142E+02  0.47000000000E+01 0.  1.
         13    1    4    4    0    0  0.16680553334E+02 -0.17637022603E+01  0.11333111213E+01  0.16811778587E+02  0.00000000000E+00 0. -1.
        -14    1    4    4    0    0 -0.67269526729E+01  0.13028573830E+03 -0.97151186077E+02  0.16265908660E+03  0.00000000000E+00 0.  1.
</event>
<event>
12    1  0.1596842E-001  0.1810291E+03  0.7818608E-02  0.1167175E+00
         21   -1    0    0  503  502  0.00000000000E+00  0.00000000000E+00  0.24143231154E+03  0.24143231154E+03  0.00000000000E+00 0. -1.
         21   -1    0    0  501  503 -0.00000000000E+00 -0.00000000000E+00 -0.13510637514E+03  0.13510637514E+03  0.00000000000E+00 0. -1.
          6    2    1    2  501    0 -0.12388876982E+02  0.54473838495E+02  0.64369464996E+02  0.19071116624E+03  0.17060608885E+03 0.  0.
         24    2    3    3    0    0 -0.71904056950E+02  0.57996121662E+02  0.31948571178E+02  0.12268420481E+03  0.74141482159E+02 0.  0.
         -6    2    1    2    0  502  0.12388876982E+02 -0.54473838495E+02  0.41956471402E+02  0.18582752043E+03  0.17219360762E+03 0.  0.
        -24    2    5    5    0    0 -0.45695149303E+02 -0.19608515248E+01  0.16872644609E+01  0.97651180423E+02  0.86261315594E+02 0.  0.
          5    1    3    3  501    0  0.59515179968E+02 -0.35222831665E+01  0.32420893818E+02  0.68026961429E+02  0.47000000000E+01 0. -1.
        -11    1    4    4    0    0 -0.32944620098E+02 -0.11092659538E+02  0.25488342856E+02  0.43105112348E+02  0.00000000000E+00 0.  1.
         12    1    4    4    0    0 -0.38959436852E+02  0.69088781200E+02  0.64602283215E+01  0.79579092465E+02  0.00000000000E+00 0. -1.
         -5    1    5    5    0  502  0.58084026285E+02 -0.52512986970E+02  0.40269206941E+02  0.88176340010E+02  0.47000000000E+01 0.  1.
         13    1    6    6    0    0 -0.22947808394E+02 -0.36414611429E+02 -0.23748507006E+02  0.49159103131E+02  0.00000000000E+00 0. -1.
        -14    1    6    6    0    0 -0.22747340909E+02  0.34453759904E+02  0.25435771467E+02  0.48492077292E+02  0.00000000000E+00 0.  1.
</event>
<event>
12    1  0.1596842E-001  0.1896935E+03  0.7818608E-02  0.1159599E+00
         21   -1    0    0  501  502  0.00000000000E+00  0.00000000000E+00  0.27215136476E+03  0.27215136476E+03  0.00000000000E+00 0. -1.
         21   -1    0    0  502  503 -0.00000000000E+00 -0.00000000000E+00 -0.14572035173E+03  0.14572035173E+03  0.00000000000E+00 0. -1.
         -6    2    1    2    0  503  0.11547752153E+02  0.76179617427E+02  0.13325938820E+03  0.23182256300E+03  0.17334056502E+03 0.  0.
        -24    2    3    3    0    0 -0.49890080048E+02  0.78875131906E+02  0.59701387781E+02  0.13582911296E+03  0.78581077273E+02 0.  0.
          6    2    1    2  501    0 -0.11547752153E+02 -0.76179617427E+02 -0.68283751744E+01  0.18604915349E+03  0.16920690327E+03 0.  0.
         24    2    5    5    0    0 -0.93197555076E+01 -0.94791300625E+02  0.44056104461E+02  0.13161865663E+03  0.79437282906E+02 0.  0.
          5    1    5    5  501    0 -0.22279966457E+01  0.18611683198E+02 -0.50884479635E+02  0.54430496858E+02  0.47000000000E+01 0. -1.
        -11    1    6    6    0    0  0.49771728178E+00 -0.97813270905E+02  0.58440666644E+02  0.11394294715E+03  0.00000000000E+00 0.  1.
         12    1    6    6    0    0 -0.98174727894E+01  0.30219702799E+01 -0.14384562183E+02  0.17675709478E+02  0.00000000000E+00 0. -1.
         -5    1    3    3    0  503  0.61437832201E+02 -0.26955144792E+01  0.73558000421E+02  0.95993450035E+02  0.47000000000E+01 0.  1.
         13    1    4    4    0    0 -0.73947108512E+01  0.26805817300E+02  0.62661990601E+02  0.68554785797E+02  0.00000000000E+00 0. -1.
        -14    1    4    4    0    0 -0.42495369196E+02  0.52069314606E+02 -0.29606028200E+01  0.67274327167E+02  0.00000000000E+00 0.  1.
</event>
<event>
12    1  0.1596842E-001  0.1831548E+03  0.7818608E-02  0.1164852E+00
         21   -1    0    0  503  502  0.00000000000E+00  0.00000000000E+00  0.13436267930E+04  0.13436267930E+04  0.00000000000E+00 0. -1.
         21   -1    0    0  501  503 -0.00000000000E+00 -0.00000000000E+00 -0.27356950653E+02  0.27356950653E+02  0.00000000000E+00 0. -1.
          6    2    1    2  501    0  0.42116218296E+02 -0.44626522342E+02  0.86193481989E+03  0.88112049439E+03  0.17226836495E+03 0.  0.
         24    2    3    3    0    0 -0.18127892178E+02 -0.77828776833E+02  0.54091442525E+03  0.55277932073E+03  0.81182652104E+02 0.  0.
         -6    2    1    2    0  502 -0.42116218296E+02  0.44626522342E+02  0.45433502242E+03  0.48986324922E+03  0.17256995103E+03 0.  0.
        -24    2    5    5    0    0 -0.38402109377E+02 -0.27094070025E+02  0.35518348349E+03  0.36734486020E+03  0.81105664047E+02 0.  0.
          5    1    3    3  501    0  0.60244110474E+02  0.33202254491E+02  0.32102039463E+03  0.32834117366E+03  0.47000000000E+01 0. -1.
        -11    1    4    4    0    0 -0.34770947504E+02 -0.19115895296E+02  0.98753765941E+02  0.10642717008E+03  0.00000000000E+00 0.  1.
         12    1    4    4    0    0  0.16643055326E+02 -0.58712881537E+02  0.44216065931E+03  0.44635215065E+03  0.00000000000E+00 0. -1.
         -5    1    5    5    0  502 -0.37141089187E+01  0.71720592367E+02  0.99151538931E+02  0.12251838902E+03  0.47000000000E+01 0.  1.
         13    1    6    6    0    0 -0.15488844258E+02  0.16188990223E+02  0.25088087282E+02  0.33636287315E+02  0.00000000000E+00 0. -1.
        -14    1    6    6    0    0 -0.22913265118E+02 -0.43283060248E+02  0.33009539621E+03  0.33370857289E+03  0.00000000000E+00 0.  1.
</event>
<event>
12    1  0.1596842E-001  0.2162009E+03  0.7818608E-02  0.1137412E+00
         21   -1    0    0  503  502  0.00000000000E+00  0.00000000000E+00  0.29830257525E+03  0.29830257525E+03  0.00000000000E+00 0. -1.
         21   -1    0    0  501  503 -0.00000000000E+00 -0.00000000000E+00 -0.27867420187E+03  0.27867420187E+03  0.00000000000E+00 0.  1.
          6    2    1    2  501    0 -0.12869588139E+03  0.16024723742E+02 -0.18302948907E+03  0.28064410787E+03  0.16864726430E+03 0.  0.
         24    2    3    3    0    0 -0.19522988896E+02 -0.31273332436E+02 -0.11446057595E+03  0.14324100594E+03  0.77830546180E+02 0.  0.
         -6    2    1    2    0  502  0.12869588139E+03 -0.16024723742E+02  0.20265786245E+03  0.29633266925E+03  0.17298387206E+03 0.  0.
        -24    2    5    5    0    0  0.46779590012E+01  0.19172768900E+02  0.46044251566E+02  0.93430669071E+02  0.78865318442E+02 0.  0.
          5    1    3    3  501    0 -0.10917289250E+03  0.47298056178E+02 -0.68568913122E+02  0.13740310193E+03  0.47000000000E+01 0. -1.
        -13    1    4    4    0    0 -0.39922145890E+02 -0.45182922678E+02 -0.91140543389E+02  0.10927887666E+03  0.00000000000E+00 0.  1.
         14    1    4    4    0    0  0.20399156994E+02  0.13909590242E+02 -0.23320032560E+02  0.33962129282E+02  0.00000000000E+00 0. -1.
         -5    1    5    5    0  502  0.12401792239E+03 -0.35197492642E+02  0.15661361089E+03  0.20290200018E+03  0.47000000000E+01 0.  1.
         13    1    6    6    0    0  0.38341013877E+02  0.19327641744E+02  0.41042643212E+02  0.59397724218E+02  0.00000000000E+00 0. -1.
        -14    1    6    6    0    0 -0.33663054876E+02 -0.15487284430E+00  0.50016083546E+01  0.34032944852E+02  0.00000000000E+00 0.  1.
</event>
<event>
12    1  0.1596842E-001  0.1724902E+03  0.7818608E-02  0.1175372E+00
         21   -1    0    0  501  502  0.00000000000E+00  0.00000000000E+00  0.86579914215E+03  0.86579914215E+03  0.00000000000E+00 0. -1.
         21   -1    0    0  502  503 -0.00000000000E+00 -0.00000000000E+00 -0.34506817434E+02  0.34506817434E+02  0.00000000000E+00 0. -1.
         -6    2    1    2    0  503  0.13063553434E+02  0.67853626458E+01  0.37951528391E+03  0.41672000522E+03  0.17148473536E+03 0.  0.
        -24    2    3    3    0    0  0.10804690165E+02  0.71139294679E+02  0.23963614559E+03  0.26265899663E+03  0.79916992330E+02 0.  0.
          6    2    1    2  501    0 -0.13063553434E+02 -0.67853626458E+01  0.45177704081E+03  0.48358595436E+03  0.17186094110E+03 0.  0.
         24    2    5    5    0    0 -0.70983162138E+02  0.16113768885E+02  0.24547490575E+03  0.26803616376E+03  0.79291820986E+02 0.  0.
          5    1    5    5  501    0  0.57919608704E+02 -0.22899131531E+02  0.20630213506E+03  0.21554979060E+03  0.47000000000E+01 0. -1.
        -13    1    6    6    0    0 -0.15019330788E+02  0.30873464265E+02  0.16719392107E+03  0.17068262459E+03  0.00000000000E+00 0.  1.
         14    1    6    6    0    0 -0.55963831350E+02 -0.14759695379E+02  0.78280984680E+02  0.97353539173E+02  0.00000000000E+00 0. -1.
         -5    1    3    3    0  503  0.22588632692E+01 -0.64353932033E+02  0.13987913832E+03  0.15406100859E+03  0.47000000000E+01 0.  1.
         13    1    4    4    0    0  0.30121183968E+01  0.41404542138E+01  0.15192737666E+03  0.15201363096E+03  0.00000000000E+00 0. -1.
        -14    1    4    4    0    0  0.77925717684E+01  0.66998840465E+02  0.87708768928E+02  0.11064536567E+03  0.00000000000E+00 0.  1.
</event>
<event>
12    1  0.1596842E-001  0.2090221E+03  0.7818608E-02  0.1142717E+00
         21   -1    0    0  501  502  0.00000000000E+00  0.00000000000E+00  0.11427864970E+03  0.11427864970E+03  0.00000000000E+00 0.  1.
         21   -1    0    0  502  503 -0.00000000000E+00 -0.00000000000E+00 -0.42373944232E+03  0.42373944232E+03  0.00000000000E+00 0. -1.
         -6    2    1    2    0  503  0.94720460741E+02  0.71792923345E+02 -0.66601678366E+02  0.21759528191E+03  0.16966358956E+03 0.  0.
        -24    2    3    3    0    0  0.10037915412E+03  0.22275662339E+02 -0.92708884297E+02  0.16113595009E+03  0.82448028890E+02 0.  0.
          6    2    1    2  501    0 -0.94720460741E+02 -0.71792923345E+02 -0.24285911426E+03  0.32042281011E+03  0.17194196212E+03 0.  0.
         24    2    5    5    0    0 -0.11393988203E+03 -0.66427049942E+02 -0.11883589633E+03  0.19471669516E+03  0.79986070264E+02 0.  0.
          5    1    5    5  501    0  0.19219421286E+02 -0.53658734029E+01 -0.12402321793E+03  0.12570611496E+03  0.47000000000E+01 0. -1.
        -11    1    6    6    0    0  0.93632750337E+01 -0.20587530337E+02 -0.19748651851E+02  0.30025432131E+02  0.00000000000E+00 0.  1.
         12    1    6    6    0    0 -0.12330315706E+03 -0.45839519605E+02 -0.99087244477E+02  0.16469126303E+03  0.00000000000E+00 0. -1.
         -5    1    3    3    0  503 -0.56586933820E+01  0.49517261006E+02  0.26107205931E+02  0.56459331822E+02  0.47000000000E+01 0.  1.
         11    1    4    4    0    0  0.44038709634E+02 -0.28010033465E+02 -0.57995431580E+02  0.78022048198E+02  0.00000000000E+00 0. -1.
        -12    1    4    4    0    0  0.56340444488E+02  0.50285695804E+02 -0.34713452717E+02  0.83113901889E+02  0.00000000000E+00 0.  1.
</event>
<event>
12    1  0.1596842E-001  0.1880595E+03  0.7818608E-02  0.1160584E+00
         21   -1    0    0  501  502  0.00000000000E+00  0.00000000000E+00  0.31702105394E+03  0.31702105394E+03  0.00000000000E+00 0.  1.
         21   -1    0    0  502  503 -0.00000000000E+00 -0.00000000000E+00 -0.14937637444E+03  0.14937637444E+03  0.00000000000E+00 0. -1.
         -6    2    1    2    0  503 -0.30143439068E+02 -0.66891096633E+02 -0.34688712690E+02  0.19123202490E+03  0.17315696587E+03 0.  0.
        -24    2    3    3    0    0  0.21679689929E+02 -0.70629342581E+02 -0.69002522585E+02  0.12878894096E+03  0.79791792824E+02 0.  0.
          6    2    1    2  501    0  0.30143439068E+02  0.66891096633E+02  0.20233339219E+03  0.27516540348E+03  0.17144722789E+03 0.  0.
         24    2    5    5    0    0  0.16920963763E+02  0.75004177037E+02  0.22245276556E+03  0.24932870262E+03  0.82265566662E+02 0.  0.
          5    1    5    5  501    0  0.13222475305E+02 -0.81130804041E+01 -0.20119373366E+02  0.25836700863E+02  0.47000000000E+01 0. -1.
        -11    1    6    6    0    0 -0.30563699444E+02  0.41271970297E+02  0.76069719817E+02  0.91782991501E+02  0.00000000000E+00 0.  1.
         12    1    6    6    0    0  0.47484663207E+02  0.33732206740E+02  0.14638304574E+03  0.15754571112E+03  0.00000000000E+00 0. -1.
         -5    1    3    3    0  503 -0.51823128997E+02  0.37382459482E+01  0.34313809896E+02  0.62443083935E+02  0.47000000000E+01 0.  1.
         11    1    4    4    0    0 -0.22603216635E+02  0.16707995319E+01 -0.68940559273E+01  0.23690187430E+02  0.00000000000E+00 0. -1.
        -12    1    4    4    0    0  0.44282906564E+02 -0.72300142113E+02 -0.62108466658E+02  0.10509875353E+03  0.00000000000E+00 0.  1.
</event>
<event>
12    1  0.1596842E-001  0.2528430E+03  0.7818608E-02  0.1111734E+00
         21   -1    0    0  501  502  0.00000000000E+00  0.00000000000E+00  0.30298668499E+03  0.30298668499E+03  0.00000000000E+00 0. -1.
         21   -1    0    0  502  503 -0.00000000000E+00 -0.00000000000E+00 -0.95038983090E+03  0.95038983090E+03  0.00000000000E+00 0.  1.
         -6    2    1    2    0  503  0.17190249832E+03  0.64036933086E+02 -0.87708129839E+03  0.91279854436E+03  0.17400684144E+03 0.  0.
        -24    2    3    3    0    0  0.15556521612E+03  0.43128021267E+02 -0.44518308868E+03  0.48006046776E+03  0.78800428791E+02 0.  0.
          6    2    1    2  501    0 -0.17190249832E+03 -0.64036933086E+02  0.22967815248E+03  0.34057797153E+03  0.17201774106E+03 0.  0.
         24    2    5    5    0    0 -0.16427338905E+03 -0.66549001547E+02  0.25096498366E+03  0.31734581757E+03  0.79438208341E+02 0.  0.
          5    1    5    5  501    0 -0.76291092706E+01  0.25120684619E+01 -0.21286831182E+02  0.23232153968E+02  0.47000000000E+01 0. -1.
        -13    1    6    6    0    0 -0.50249345488E+02  0.16030993794E+02  0.80783888542E+02  0.96478112191E+02  0.00000000000E+00 0.  1.
         14    1    6    6    0    0 -0.11402404356E+03 -0.82579995341E+02  0.17018109512E+03  0.22086770537E+03  0.00000000000E+00 0. -1.
         -5    1    3    3    0  503  0.16337282201E+02  0.20908911818E+02 -0.43189820971E+03  0.43273807659E+03  0.47000000000E+01 0.  1.
         13    1    4    4    0    0  0.75543789372E+02 -0.11292497683E+02 -0.26172488017E+03  0.27264316885E+03  0.00000000000E+00 0. -1.
        -14    1    4    4    0    0  0.80021426749E+02  0.54420518951E+02 -0.18345820850E+03  0.20741729891E+03  0.00000000000E+00 0.  1.
</event>
<event>
12    1  0.1596842E-001  0.2007863E+03  0.7818608E-02  0.1150992E+00
         21   -1    0    0  501  502  0.00000000000E+00  0.00000000000E+00  0.26120095556E+03  0.26120095556E+03  0.00000000000E+00 0.  1.
         21   -1    0    0  502  503 -0.00000000000E+00 -0.00000000000E+00 -0.19362891966E+03  0.19362891966E+03  0.00000000000E+00 0.  1.
         -6    2    1    2    0  503  0.27204447754E+02  0.10346095067E+03 -0.77685703372E+02  0.20700945814E+03  0.15929091927E+03 0.  0.
        -24    2    3    3    0    0 -0.11387175086E+01  0.31125064938E+02  0.15939675366E+02  0.85257181262E+02  0.77747330250E+02 0.  0.
          6    2    1    2  501    0 -0.27204447754E+02 -0.10346095067E+03  0.14525773927E+03  0.24782041708E+03  0.16991438436E+03 0.  0.
         24    2    5    5    0    0  0.46286513283E+02 -0.84000801939E+02  0.83795122117E+02  0.14994620163E+03  0.79143318447E+02 0.  0.
          5    1    5    5  501    0 -0.73490961037E+02 -0.19460148728E+02  0.61462617157E+02  0.97874215452E+02  0.47000000000E+01 0. -1.
        -11    1    6    6    0    0  0.27850145459E+02 -0.90607375425E+02  0.41778345450E+02  0.10358936834E+03  0.00000000000E+00 0.  1.
         12    1    6    6    0    0  0.18436367823E+02  0.66065734863E+01  0.42016776667E+02  0.46356833296E+02  0.00000000000E+00 0. -1.
         -5    1    3    3    0  503  0.28343165263E+02  0.72335885729E+02 -0.93625378738E+02  0.12175227688E+03  0.47000000000E+01 0.  1.
         11    1    4    4    0    0  0.35465150366E+02  0.46649091796E+01 -0.37879722674E+01  0.35970640835E+02  0.00000000000E+00 0. -1.
        -12    1    4    4    0    0 -0.36603867875E+02  0.26460155758E+02  0.19727647633E+02  0.49286540427E+02  0.00000000000E+00 0.  1.
</event>
<event>
12    1  0.1596842E-001  0.1870818E+03  0.7818608E-02  0.1161721E+00
         21   -1    0    0  503  502  0.00000000000E+00  0.00000000000E+00  0.20562119912E+03  0.20562119912E+03  0.00000000000E+00 0. -1.
         21   -1    0    0  501  503 -0.00000000000E+00 -0.00000000000E+00 -0.22696554528E+03  0.22696554528E+03  0.00000000000E+00 0. -1.
          6    2    1    2  501    0  0.38138263754E+02 -0.61899720337E+02 -0.12098876299E+03  0.22062301255E+03  0.16955863398E+03 0.  0.
         24    2    3    3    0    0  0.66466602527E+02  0.99102762711E+01 -0.43947208085E+02  0.11145954992E+03  0.77303630854E+02 0.  0.
         -6    2    1    2    0  502 -0.38138263754E+02  0.61899720337E+02  0.99644416830E+02  0.21196373184E+03  0.17237607511E+03 0.  0.
        -24    2    5    5    0    0 -0.88922374769E+02  0.36852919997E+02  0.43706217666E+02  0.13222954680E+03  0.79429800058E+02 0.  0.
          5    1    3    3  501    0 -0.28328338773E+02 -0.71809996608E+02 -0.77041554907E+02  0.10916346263E+03  0.47000000000E+01 0. -1.
        -11    1    4    4    0    0 -0.93101892733E+01 -0.16494146897E+01  0.12923547048E+02  0.16013065335E+02  0.00000000000E+00 0.  1.
         12    1    4    4    0    0  0.75776791800E+02  0.11559690961E+02 -0.56870755134E+02  0.95446484587E+02  0.00000000000E+00 0. -1.
         -5    1    5    5    0  502  0.50784111016E+02  0.25046800340E+02  0.55938199164E+02  0.79734185044E+02  0.47000000000E+01 0.  1.
         11    1    6    6    0    0 -0.32234400429E+02  0.55561152995E+02  0.14865491079E+02  0.65932398092E+02  0.00000000000E+00 0. -1.
        -12    1    6    6    0    0 -0.56687974340E+02 -0.18708232998E+02  0.28840726587E+02  0.66297148708E+02  0.00000000000E+00 0.  1.
</event>
<event>
12    1  0.1596842E-001  0.2012602E+03  0.7818608E-02  0.1149304E+00
         21   -1    0    0  503  502  0.00000000000E+00  0.00000000000E+00  0.96639157690E+02  0.96639157690E+02  0.00000000000E+00 0.  1.
         21   -1    0    0  501  503 -0.00000000000E+00 -0.00000000000E+00 -0.56570239397E+03  0.56570239397E+03  0.00000000000E+00 0. -1.
          6    2    1    2  501    0 -0.46660368357E+02  0.89373898683E+02 -0.40531981978E+03  0.45122807248E+03  0.17075635669E+03 0.  0.
         24    2    3    3    0    0 -0.74013226697E+01  0.80561829732E+02 -0.12690107338E+03  0.16987773292E+03  0.78800848536E+02 0.  0.
         -6    2    1    2    0  502  0.46660368357E+02 -0.89373898683E+02 -0.63743416497E+02  0.21111347917E+03  0.17418609072E+03 0.  0.
        -24    2    5    5    0    0  0.95120748285E+02 -0.75207065516E+02 -0.67313702952E+02  0.16028096467E+03  0.80341729968E+02 0.  0.
          5    1    3    3  501    0 -0.39259045688E+02  0.88120689509E+01 -0.27841874639E+03  0.28135033956E+03  0.47000000000E+01 0. -1.
        -13    1    4    4    0    0  0.10094516411E+02  0.17896754658E+02  0.64212129678E+01  0.21527309744E+02  0.00000000000E+00 0.  1.
         14    1    4    4    0    0 -0.17495839081E+02  0.62665075074E+02 -0.13332228635E+03  0.14835042318E+03  0.00000000000E+00 0. -1.
         -5    1    5    5    0  502 -0.48460379928E+02 -0.14166833167E+02  0.35702864545E+01  0.50832514497E+02  0.47000000000E+01 0.  1.
         13    1    6    6    0    0  0.65014474578E+02 -0.73961900455E+02 -0.80692149267E+02  0.12731248005E+03  0.00000000000E+00 0. -1.
        -14    1    6    6    0    0  0.30106273707E+02 -0.12451650610E+01  0.13378446315E+02  0.32968484623E+02  0.00000000000E+00 0.  1.
</event>
<event>
12    1  0.1596842E-001  0.1758789E+03  0.7818608E-02  0.1172090E+00
         21   -1    0    0  503  502  0.00000000000E+00  0.00000000000E+00  0.19298932238E+03  0.19298932238E+03  0.00000000000E+00 0.  1.
         21   -1    0    0  501  503 -0.00000000000E+00 -0.00000000000E+00 -0.44459749093E+03  0.44459749093E+03  0.00000000000E+00 0.  1.
          6    2    1    2  501    0  0.14510320976E+02 -0.29370715097E+02 -0.38124571253E+03  0.41985912022E+03  0.17280103932E+03 0.  0.
         24    2    3    3    0    0 -0.51252261164E+02  0.10724106180E+02 -0.17476434919E+03  0.19943009466E+03  0.80548024063E+02 0.  0.
         -6    2    1    2    0  502 -0.14510320976E+02  0.29370715097E+02  0.12963754398E+03  0.21772769309E+03  0.17183209016E+03 0.  0.
        -24    2    5    5    0    0 -0.41430833533E+00 -0.43981913589E+02  0.33254711671E+02  0.95698819165E+02  0.78216416224E+02 0.  0.
          5    1    3    3  501    0  0.65762582140E+02 -0.40094821277E+02 -0.20648136334E+03  0.22042902556E+03  0.47000000000E+01 0. -1.
        -13    1    4    4    0    0  0.19048666929E+02 -0.10891258386E+02 -0.31495901862E+02  0.38385714206E+02  0.00000000000E+00 0.  1.
         14    1    4    4    0    0 -0.70300928093E+02  0.21615364566E+02 -0.14326844733E+03  0.16104438045E+03  0.00000000000E+00 0. -1.
         -5    1    5    5    0  502 -0.14096012640E+02  0.73352628687E+02  0.96382832313E+02  0.12202887393E+03  0.47000000000E+01 0.  1.
         11    1    6    6    0    0  0.37686964510E+02 -0.30221942508E+02  0.24855585302E+02  0.54327462886E+02  0.00000000000E+00 0. -1.
        -12    1    6    6    0    0 -0.38101272846E+02 -0.13759971081E+02  0.83991263686E+01  0.41371356279E+02  0.00000000000E+00 0.  1.
</event>
<event>
12    1  0.1596842E-001  0.2308144E+03  0.7818608E-02  0.1126428E+00
         21   -1    0    0  501  502  0.00000000000E+00  0.00000000000E+00  0.32486804656E+03  0.32486804656E+03  0.00000000000E+00 0. -1.
         21   -1    0    0  502  503 -0.00000000000E+00 -0.00000000000E+00 -0.17085241739E+03  0.17085241739E+03  0.00000000000E+00 0.  1.
         -6    2    1    2    0  503  0.10519541051E+02 -0.15175862925E+03  0.22662473647E+02  0.23192424254E+03  0.17359125631E+03 0.  0.
        -24    2    3    3    0    0 -0.40263615983E+02 -0.32023000866E+02 -0.51808625914E+01  0.98834456617E+02  0.84230499946E+02 0.  0.
          6    2    1    2  501    0 -0.10519541051E+02  0.15175862925E+03  0.13135315552E+03  0.26379622141E+03  0.17086091615E+03 0.  0.
         24    2    5    5    0    0 -0.17532042129E+02  0.17707516613E+03  0.13716079928E+03  0.23648466823E+03  0.73816844205E+02 0.  0.
          5    1    5    5  501    0  0.70125010780E+01 -0.25316536880E+02 -0.58076437566E+01  0.27311553178E+02  0.47000000000E+01 0. -1.
        -11    1    6    6    0    0 -0.29897482894E+02  0.45871013113E+02  0.14959142793E+02  0.56760772374E+02  0.00000000000E+00 0.  1.
         12    1    6    6    0    0  0.12365440764E+02  0.13120415302E+03  0.12220165649E+03  0.17972389586E+03  0.00000000000E+00 0. -1.
         -5    1    3    3    0  503  0.50783157035E+02 -0.11973562839E+03  0.27843336239E+02  0.13308978592E+03  0.47000000000E+01 0.  1.
         13    1    4    4    0    0 -0.12156396205E+02 -0.42609377673E+02  0.29289233746E+02  0.53114934320E+02  0.00000000000E+00 0. -1.
        -14    1    4    4    0    0 -0.28107219778E+02  0.10586376807E+02 -0.34470096337E+02  0.45719522297E+02  0.00000000000E+00 0.  1.
</event>
<event>
12    1  0.1596842E-001  0.1917303E+03  0.7818608E-02  0.1157185E+00
         21   -1    0    0  503  502  0.00000000000E+00  0.00000000000E+00  0.14907651919E+03  0.14907651919E+03  0.00000000000E+00 0.  1.
         21   -1    0    0  501  503 -0.00000000000E+00 -0.00000000000E+00 -0.25152204733E+03  0.25152204733E+03  0.00000000000E+00 0. -1.
          6    2    1    2  501    0 -0.82395819553E+02  0.24518991034E+02 -0.83293065284E+02  0.20791407038E+03  0.17000080569E+03 0.  0.
         24    2    3    3    0    0 -0.10003000531E+03 -0.27813650488E+02 -0.77397009223E+02  0.15217787610E+03  0.79926264891E+02 0.  0.
         -6    2    1    2    0  502  0.82395819553E+02 -0.24518991034E+02 -0.19152462856E+02  0.19268449614E+03  0.17137749624E+03 0.  0.
        -24    2    5    5    0    0  0.76779461570E+02 -0.78890862562E+02 -0.19710267798E+02  0.13781879613E+03  0.80539878301E+02 0.  0.
          5    1    3    3  501    0  0.17634185762E+02  0.52332641522E+02 -0.58960560611E+01  0.55736194283E+02  0.47000000000E+01 0. -1.
        -11    1    4    4    0    0 -0.63203700875E+02 -0.15983452150E+02  0.51204108555E+00  0.65195404232E+02  0.00000000000E+00 0.  1.
         12    1    4    4    0    0 -0.36826304440E+02 -0.11830198338E+02 -0.77909050309E+02  0.86982471863E+02  0.00000000000E+00 0. -1.
         -5    1    5    5    0  502  0.56163579831E+01  0.54371871529E+02  0.55780494195E+00  0.54865700004E+02  0.47000000000E+01 0.  1.
         11    1    6    6    0    0  0.24675726783E+02 -0.42918902926E+02  0.29499288658E+02  0.57629261248E+02  0.00000000000E+00 0. -1.
        -12    1    6    6    0    0  0.52103734787E+02 -0.35971959636E+02 -0.49209556456E+02  0.80189534887E+02  0.00000000000E+00 0.  1.
</event>
<event>
12    1  0.1596842E-001  0.2005834E+03  0.7818608E-02  0.1149310E+00
         21   -1    0    0  501  502  0.00000000000E+00  0.00000000000E+00  0.14977752118E+04  0.14977752118E+04  0.00000000000E+00 0. -1.
         21   -1    0    0  502  503 -0.00000000000E+00 -0.00000000000E+00 -0.35702775261E+02  0.35702775261E+02  0.00000000000E+00 0. -1.
         -6    2    1    2    0  503 -0.74050497262E+02 -0.71465559712E+02  0.34824957504E+03  0.40173814211E+03  0.17182830365E+03 0.  0.
        -24    2    3    3    0    0 -0.17597238807E+02 -0.60271076072E+02  0.85513553145E+02  0.13273146179E+03  0.79767209755E+02 0.  0.
          6    2    1    2  501    0  0.74050497262E+02  0.71465559712E+02  0.11138228615E+04  0.11317398450E+04  0.17217115756E+03 0.  0.
         24    2    5    5    0    0  0.77441388291E+01  0.59572327444E+02  0.94019544809E+03  0.94544290234E+03  0.79284091016E+02 0.  0.
          5    1    5    5  501    0  0.66306358433E+02  0.11893232268E+02  0.17362741343E+03  0.18629694264E+03  0.47000000000E+01 0. -1.
        -13    1    6    6    0    0  0.16941941236E+02 -0.12246179206E+02  0.10164721527E+03  0.10377453758E+03  0.00000000000E+00 0.  1.
         14    1    6    6    0    0 -0.91978024074E+01  0.71818506650E+02  0.83854823282E+03  0.84166836476E+03  0.00000000000E+00 0. -1.
         -5    1    3    3    0  503 -0.56453258455E+02 -0.11194483640E+02  0.26273602190E+03  0.26900668032E+03  0.47000000000E+01 0.  1.
         11    1    4    4    0    0 -0.30071125839E+02 -0.66651315323E+02  0.91810548117E+02  0.11737055503E+03  0.00000000000E+00 0. -1.
        -12    1    4    4    0    0  0.12473887032E+02  0.63802392510E+01 -0.62969949720E+01  0.15360906753E+02  0.00000000000E+00 0.  1.
</event>
<event>
12    1  0.1596842E-001  0.1934218E+03  0.7818608E-02  0.1155813E+00
         21   -1    0    0  503  502  0.00000000000E+00  0.00000000000E+00  0.14609516504E+03  0.14609516504E+03  0.00000000000E+00 0.  1.
         21   -1    0    0  501  503 -0.00000000000E+00 -0.00000000000E+00 -0.41568035897E+03  0.41568035897E+03  0.00000000000E+00 0.  1.
          6    2    1    2  501    0 -0.75338754049E+02  0.39586470325E+02 -0.30975516939E+03  0.36422647797E+03  0.17166725312E+03 0.  0.
         24    2    3    3    0    0 -0.36567647386E+02 -0.71964591625E+01 -0.28322712356E+03  0.29776093487E+03  0.83993981675E+02 0.  0.
         -6    2    1    2    0  502  0.75338754049E+02 -0.39586470325E+02  0.40169975468E+02  0.19754904604E+03  0.17369220526E+03 0.  0.
        -24    2    5    5    0    0  0.62659736568E+02 -0.47451163616E+02 -0.39901068537E+02  0.11596428660E+03  0.75350945456E+02 0.  0.
          5    1    3    3  501    0 -0.38771106663E+02  0.46782929488E+02 -0.26528045840E+02  0.66465543099E+02  0.47000000000E+01 0. -1.
        -11    1    4    4    0    0 -0.15620176497E+02  0.38284801143E+02 -0.14319155912E+03  0.14904206961E+03  0.00000000000E+00 0.  1.
         12    1    4    4    0    0 -0.20947470888E+02 -0.45481260306E+02 -0.14003556444E+03  0.14871886526E+03  0.00000000000E+00 0. -1.
         -5    1    5    5    0  502  0.12679017480E+02  0.78646932909E+01  0.80071044004E+02  0.81584759439E+02  0.47000000000E+01 0.  1.
         11    1    6    6    0    0  0.48617236703E+02 -0.66994952085E+02 -0.21095124495E+02  0.85422266342E+02  0.00000000000E+00 0. -1.
        -12    1    6    6    0    0  0.14042499865E+02  0.19543788469E+02 -0.18805944042E+02  0.30542020259E+02  0.00000000000E+00 0.  1.
</event>
<event>
12    1  0.1596842E-001  0.2438272E+03  0.7818608E-02  0.1117636E+00
         21   -1    0    0  503  502  0.00000000000E+00  0.00000000000E+00  0.74947994515E+03  0.74947994515E+03  0.00000000000E+00 0. -1.
         21   -1    0    0  501  503 -0.00000000000E+00 -0.00000000000E+00 -0.44871419043E+03  0.44871419043E+03  0.00000000000E+00 0. -1.
          6    2    1    2  501    0 -0.88574510679E+02  0.14522655597E+03 -0.39383995049E+03  0.46203600364E+03  0.17155513853E+03 0.  0.
         24    2    3    3    0    0 -0.78863116893E+02  0.13091458067E+03 -0.18576837749E+03  0.25319392623E+03  0.78988958496E+02 0.  0.
         -6    2    1    2    0  502  0.88574510679E+02 -0.14522655597E+03  0.69460570522E+03  0.73615813194E+03  0.17468689991E+03 0.  0.
        -24    2    5    5    0    0 -0.22083690769E+01 -0.78236192020E+02  0.21003421366E+03  0.23860324999E+03  0.81800741825E+02 0.  0.
          5    1    3    3  501    0 -0.97113937866E+01  0.14311975293E+02 -0.20807157301E+03  0.20884207742E+03  0.47000000000E+01 0. -1.
        -11    1    4    4    0    0 -0.26400710673E+02  0.35660315386E+02 -0.84221435361E+01  0.45161799335E+02  0.00000000000E+00 0.  1.
         12    1    4    4    0    0 -0.52462406219E+02  0.95254265287E+02 -0.17734623395E+03  0.20803212689E+03  0.00000000000E+00 0. -1.
         -5    1    5    5    0  502  0.90782879756E+02 -0.66990363946E+02  0.48457149156E+03  0.49755488195E+03  0.47000000000E+01 0.  1.
         13    1    6    6    0    0  0.35877924269E+02 -0.60642692700E+02  0.11758814446E+03  0.13708294331E+03  0.00000000000E+00 0. -1.
        -14    1    6    6    0    0 -0.38086293346E+02 -0.17593499320E+02  0.92446069194E+02  0.10152030668E+03  0.00000000000E+00 0.  1.
</event>
<event>
12    1  0.1596842E-001  0.1844612E+03  0.7818608E-02  0.1163584E+00
         21   -1    0    0  503  502  0.00000000000E+00  0.00000000000E+00  0.36095212543E+03  0.36095212543E+03  0.00000000000E+00 0. -1.
         21   -1    0    0  501  503 -0.00000000000E+00 -0.00000000000E+00 -0.56748393961E+03  0.56748393961E+03  0.00000000000E+00 0. -1.
          6    2    1    2  501    0  0.28908021747E+01 -0.66719360602E+02 -0.52721271864E+03  0.55855095349E+03  0.17194791980E+03 0.  0.
         24    2    3    3    0    0 -0.90224354894E+01 -0.60588504281E+02 -0.53357344089E+03  0.54299263036E+03  0.79925018678E+02 0.  0.
         -6    2    1    2    0  502 -0.28908021747E+01  0.66719360602E+02  0.32068090447E+03  0.36988511156E+03  0.17181071982E+03 0.  0.
        -24    2    5    5    0    0  0.42590845374E+02  0.58615448562E+02  0.30174391100E+03  0.31973580074E+03  0.77018462263E+02 0.  0.
          5    1    3    3  501    0  0.11913237664E+02 -0.61308563207E+01  0.63607222485E+01  0.15558323123E+02  0.47000000000E+01 0. -1.
        -11    1    4    4    0    0  0.20694624826E+01 -0.45851630545E+02 -0.11232639558E+03  0.12134197066E+03  0.00000000000E+00 0.  1.
         12    1    4    4    0    0 -0.11091897972E+02 -0.14736873736E+02 -0.42124704531E+03  0.42165065970E+03  0.00000000000E+00 0. -1.
         -5    1    5    5    0  502 -0.45481647549E+02  0.81039120393E+01  0.18936993470E+02  0.50149310821E+02  0.47000000000E+01 0.  1.
         11    1    6    6    0    0  0.25422485541E+02  0.70974661065E+02  0.16553939963E+03  0.18189831806E+03  0.00000000000E+00 0. -1.
        -12    1    6    6    0    0  0.17168359834E+02 -0.12359212502E+02  0.13620451137E+03  0.13783748268E+03  0.00000000000E+00 0.  1.
</event>
<event>
12    1  0.1596842E-001  0.1871843E+03  0.7818608E-02  0.1162235E+00
         21   -1    0    0  503  502  0.00000000000E+00  0.00000000000E+00  0.82637235963E+02  0.82637235963E+02  0.00000000000E+00 0. -1.
         21   -1    0    0  501  503 -0.00000000000E+00 -0.00000000000E+00 -0.41535869219E+03  0.41535869219E+03  0.00000000000E+00 0. -1.
          6    2    1    2  501    0  0.53088741084E+02 -0.24628124327E+02 -0.18524768704E+03  0.25969679105E+03  0.17233908085E+03 0.  0.
         24    2    3    3    0    0  0.73736737002E+02 -0.68864301407E+02 -0.10924485636E+03  0.16924404444E+03  0.80806618196E+02 0.  0.
         -6    2    1    2    0  502 -0.53088741084E+02  0.24628124327E+02 -0.14747376918E+03  0.23829913710E+03  0.17780047022E+03 0.  0.
        -24    2    5    5    0    0 -0.10471796452E+03  0.13264491437E+02 -0.91650991490E+02  0.16127328836E+03  0.80419963131E+02 0.  0.
          5    1    3    3  501    0 -0.20647995918E+02  0.44236177079E+02 -0.76002830681E+02  0.90452746611E+02  0.47000000000E+01 0. -1.
        -11    1    4    4    0    0  0.29448979580E+01 -0.51075159488E+02 -0.22539826079E+02  0.55905170605E+02  0.00000000000E+00 0.  1.
         12    1    4    4    0    0  0.70791839044E+02 -0.17789141919E+02 -0.86705030281E+02  0.11333887383E+03  0.00000000000E+00 0. -1.
         -5    1    5    5    0  502  0.51629223439E+02  0.11363632890E+02 -0.55822777695E+02  0.77025848746E+02  0.47000000000E+01 0.  1.
         11    1    6    6    0    0 -0.86127032252E+02  0.64614887872E+01 -0.22369430968E+02  0.89218876723E+02  0.00000000000E+00 0. -1.
        -12    1    6    6    0    0 -0.18590932271E+02  0.68030026502E+01 -0.69281560522E+02  0.72054411635E+02  0.00000000000E+00 0.  1.
</event>
<event>
12    1  0.1596842E-001  0.2741696E+03  0.7818608E-02  0.1099009E+00
         21   -1    0    0  503  502  0.00000000000E+00  0.00000000000E+00  0.10587475145E+03  0.10587475145E+03  0.00000000000E+00 0. -1.
         21   -1    0    0  501  503 -0.00000000000E+00 -0.00000000000E+00 -0.70831354562E+03  0.70831354562E+03  0.00000000000E+00 0.  1.
          6    2    1    2  501    0 -0.42625341324E+02 -0.20804374801E+03 -0.30373690951E+03  0.40873571850E+03  0.17236489367E+03 0.  0.
         24    2    3    3    0    0  0.19072025809E+02 -0.19157049552E+03 -0.24534731225E+03  0.32207910752E+03  0.80477642540E+02 0.  0.
         -6    2    1    2    0  502  0.42625341324E+02  0.20804374801E+03 -0.29870188466E+03  0.40545257856E+03  0.17340662258E+03 0.  0.
        -24    2    5    5    0    0  0.10887667975E+01  0.24674685786E+02 -0.12477554685E+03  0.14928474103E+03  0.78147113065E+02 0.  0.
          5    1    3    3  501    0 -0.61697367133E+02 -0.16473252491E+02 -0.58389597258E+02  0.86656610982E+02  0.47000000000E+01 0. -1.
        -13    1    4    4    0    0 -0.52297393537E+01 -0.17041176217E+03 -0.17305656208E+03  0.24293227974E+03  0.00000000000E+00 0.  1.
         14    1    4    4    0    0  0.24301765163E+02 -0.21158733344E+02 -0.72290750174E+02  0.79146827779E+02  0.00000000000E+00 0. -1.
         -5    1    5    5    0  502  0.41536574527E+02  0.18336906222E+03 -0.17392633781E+03  0.25616783754E+03  0.47000000000E+01 0.  1.
         13    1    6    6    0    0  0.20120187961E+02 -0.71305792200E+01 -0.24728396804E+01  0.21489114911E+02  0.00000000000E+00 0. -1.
        -14    1    6    6    0    0 -0.19031421163E+02  0.31805265006E+02 -0.12230270717E+03  0.12779562612E+03  0.00000000000E+00 0.  1.
</event>
<event>
12    1  0.1596842E-001  0.2018950E+03  0.7818608E-02  0.1148276E+00
         21   -1    0    0  501  502  0.00000000000E+00  0.00000000000E+00  0.10423999350E+03  0.10423999350E+03  0.00000000000E+00 0.  1.
         21   -1    0    0  502  503 -0.00000000000E+00 -0.00000000000E+00 -0.47046319445E+03  0.47046319445E+03  0.00000000000E+00 0.  1.
         -6    2    1    2    0  503  0.10357697115E+03  0.74140556618E+01 -0.30181774823E+03  0.36278423930E+03  0.17243924717E+03 0.  0.
        -24    2    3    3    0    0  0.44427909687E+02 -0.60383811153E+02 -0.13988982388E+03  0.17747934217E+03  0.79433684690E+02 0.  0.
          6    2    1    2  501    0 -0.10357697115E+03 -0.74140556618E+01 -0.64405452730E+02  0.21191894865E+03  0.17314277716E+03 0.  0.
         24    2    5    5    0    0  0.47819667470E+01  0.26100620568E+02 -0.20270382772E+02  0.90120396337E+02  0.83705960469E+02 0.  0.
          5    1    5    5  501    0 -0.10835893790E+03 -0.33514676230E+02 -0.44135069958E+02  0.12179855232E+03  0.47000000000E+01 0. -1.
        -13    1    6    6    0    0 -0.11514600682E+02 -0.26500423262E+02 -0.19842347916E+02  0.35051066071E+02  0.00000000000E+00 0.  1.
         14    1    6    6    0    0  0.16296567429E+02  0.52601043830E+02 -0.42803485668E+00  0.55069330265E+02  0.00000000000E+00 0. -1.
         -5    1    3    3    0  503  0.59149061467E+02  0.67797866815E+02 -0.16192792435E+03  0.18530489713E+03  0.47000000000E+01 0.  1.
         13    1    4    4    0    0  0.33107359113E+02 -0.78279561347E+02 -0.12658249151E+03  0.15246938745E+03  0.00000000000E+00 0. -1.
        -14    1    4    4    0    0  0.11320550574E+02  0.17895750194E+02 -0.13307332365E+02  0.25009954717E+02  0.00000000000E+00 0.  1.
</event>
<event>
12    1  0.1596842E-001  0.2549930E+03  0.7818608E-02  0.1110701E+00
         21   -1    0    0  501  502  0.00000000000E+00  0.00000000000E+00  0.65232333827E+02  0.65232333827E+02  0.00000000000E+00 0.  1.
         21   -1    0    0  502  503 -0.00000000000E+00 -0.00000000000E+00 -0.10853968077E+04  0.10853968077E+04  0.00000000000E+00 0. -1.
         -6    2    1    2    0  503  0.16325078417E+03 -0.85673025786E+02 -0.33717739034E+03  0.42274109072E+03  0.17615547493E+03 0.  0.
        -24    2    3    3    0    0  0.20535345846E+02 -0.55500102549E+02 -0.77183183970E+02  0.12458479114E+03  0.77859902925E+02 0.  0.
          6    2    1    2  501    0 -0.16325078417E+03  0.85673025786E+02 -0.68298708354E+03  0.72788805081E+03  0.17134460118E+03 0.  0.
         24    2    5    5    0    0 -0.12492942211E+02  0.41602412123E+02 -0.18915760815E+03  0.20966050748E+03  0.79310108924E+02 0.  0.
          5    1    5    5  501    0 -0.15075784196E+03  0.44070613663E+02 -0.49382947539E+03  0.51822754333E+03  0.47000000000E+01 0. -1.
        -11    1    6    6    0    0 -0.30961894509E+02 -0.11844628965E+02 -0.57479552307E+02  0.66353847517E+02  0.00000000000E+00 0.  1.
         12    1    6    6    0    0  0.18468952298E+02  0.53447041088E+02 -0.13167805584E+03  0.14330665996E+03  0.00000000000E+00 0. -1.
         -5    1    3    3    0  503  0.14271543833E+03 -0.30172923237E+02 -0.25999420637E+03  0.29815629958E+03  0.47000000000E+01 0.  1.
         11    1    4    4    0    0  0.10245736763E+02 -0.36023583732E+02 -0.91121352094E+02  0.98517889310E+02  0.00000000000E+00 0. -1.
        -12    1    4    4    0    0  0.10289609083E+02 -0.19476518817E+02  0.13938168124E+02  0.26066901829E+02  0.00000000000E+00 0.  1.
</event>
<event>
12    1  0.1596842E-001  0.2821990E+03  0.7818608E-02  0.1094541E+00
         21   -1    0    0  501  502  0.00000000000E+00  0.00000000000E+00  0.12040807544E+03  0.12040807544E+03  0.00000000000E+00 0.  1.
         21   -1    0    0  502  503 -0.00000000000E+00 -0.00000000000E+00 -0.11055741735E+04  0.11055741735E+04  0.00000000000E+00 0. -1.
         -6    2    1    2    0  503  0.11400232469E+03  0.19032055630E+03 -0.10385959805E+03  0.30070429454E+03  0.17440703100E+03 0.  0.
        -24    2    3    3    0    0  0.13541196424E+03  0.12060905321E+03 -0.11306557783E+03  0.22705033068E+03  0.76714301133E+02 0.  0.
          6    2    1    2  501    0 -0.11400232469E+03 -0.19032055630E+03 -0.88130650003E+03  0.92527795442E+03  0.17383814816E+03 0.  0.
         24    2    5    5    0    0 -0.89600859156E+02 -0.17988302533E+03 -0.86916351343E+03  0.89571588926E+03  0.80470643240E+02 0.  0.
          5    1    5    5  501    0 -0.24401465539E+02 -0.10437530965E+02 -0.12142986597E+02  0.29562065161E+02  0.47000000000E+01 0. -1.
        -13    1    6    6    0    0 -0.84461365778E+01  0.64025258929E+01 -0.84812421072E+02  0.85472079236E+02  0.00000000000E+00 0.  1.
         14    1    6    6    0    0 -0.81154722578E+02 -0.18628555122E+03 -0.78435109236E+03  0.81024381002E+03  0.00000000000E+00 0. -1.
         -5    1    3    3    0  503 -0.21409639543E+02  0.69711503090E+02  0.92059797808E+01  0.73653963859E+02  0.47000000000E+01 0.  1.
         11    1    4    4    0    0  0.43746311505E+02  0.21473473537E+02 -0.70069014368E+02  0.85349379673E+02  0.00000000000E+00 0. -1.
        -12    1    4    4    0    0  0.91665652733E+02  0.99135579668E+02 -0.42996563465E+02  0.14170095101E+03  0.00000000000E+00 0.  1.
</event>
<event>
12    1  0.1596842E-001  0.1781664E+03  0.7818608E-02  0.1169662E+00
         21   -1    0    0  501  502  0.00000000000E+00  0.00000000000E+00  0.52592533746E+03  0.52592533746E+03  0.00000000000E+00 0. -1.
         21   -1    0    0  502  503 -0.00000000000E+00 -0.00000000000E+00 -0.60745603455E+02  0.60745603455E+02  0.00000000000E+00 0. -1.
         -6    2    1    2    0  503  0.42276706565E+02 -0.22372968961E+02  0.25869389647E+03  0.31394460287E+03  0.17132078666E+03 0.  0.
        -24    2    3    3    0    0  0.83383679053E+02  0.19268545731E+01  0.11702064431E+03  0.16436631237E+03  0.79786607564E+02 0.  0.
          6    2    1    2  501    0 -0.42276706565E+02  0.22372968961E+02  0.20648583754E+03  0.27272633805E+03  0.17162571108E+03 0.  0.
         24    2    5    5    0    0 -0.71958314672E+02  0.18965372889E+02  0.65032695220E+02  0.12807610112E+03  0.81465034292E+02 0.  0.
          5    1    5    5  501    0  0.29681608107E+02  0.34075960719E+01  0.14145314232E+03  0.14465023692E+03  0.47000000000E+01 0. -1.
        -13    1    6    6    0    0 -0.13982067362E+02  0.30316231445E+02  0.60154863011E+02  0.68798107827E+02  0.00000000000E+00 0.  1.
         14    1    6    6    0    0 -0.57976247311E+02 -0.11350858556E+02  0.48778322091E+01  0.59277993296E+02  0.00000000000E+00 0. -1.
         -5    1    3    3    0  503 -0.41106972487E+02 -0.24299823534E+02  0.14167325216E+03  0.14957829050E+03  0.47000000000E+01 0.  1.
         11    1    4    4    0    0  0.25441931424E+02  0.37274705317E+02  0.30809500965E+02  0.54643580417E+02  0.00000000000E+00 0. -1.
        -12    1    4    4    0    0  0.57941747629E+02 -0.35347850744E+02  0.86211143346E+02  0.10972273195E+03  0.00000000000E+00 0.  1.
</event>
<event>
12    1  0.1596842E-001  0.2317574E+03  0.7818608E-02  0.1126584E+00
         21   -1    0    0  503  502  0.00000000000E+00  0.00000000000E+00  0.32486909501E+03  0.32486909501E+03  0.00000000000E+00 0.  1.
         21   -1    0    0  501  503 -0.00000000000E+00 -0.00000000000E+00 -0.20162694689E+03  0.20162694689E+03  0.00000000000E+00 0. -1.
          6    2    1    2  501    0  0.37057417173E+02  0.13945122051E+03  0.17960437521E+03  0.28798356467E+03  0.17279151269E+03 0.  0.
         24    2    3    3    0    0  0.22817997712E+02  0.13189362810E+03  0.55667851575E+02  0.16291466302E+03  0.74334968716E+02 0.  0.
         -6    2    1    2    0  502 -0.37057417173E+02 -0.13945122051E+03 -0.56362227087E+02  0.23851247723E+03  0.18136043142E+03 0.  0.
        -24    2    5    5    0    0  0.32496287675E+01 -0.76912459253E+02  0.38383311761E+02  0.11795310703E+03  0.80706693410E+02 0.  0.
          5    1    3    3  501    0  0.14239419461E+02  0.75575924052E+01  0.12393652363E+03  0.12506890165E+03  0.47000000000E+01 0. -1.
        -13    1    4    4    0    0  0.21579165363E+02  0.85739635717E+02 -0.27474007788E+01  0.88456168364E+02  0.00000000000E+00 0.  1.
         14    1    4    4    0    0  0.12388323494E+01  0.46153992386E+02  0.58415252354E+02  0.74458494655E+02  0.00000000000E+00 0. -1.
         -5    1    5    5    0  502 -0.40307045940E+02 -0.62538761255E+02 -0.94745538848E+02  0.12055937020E+03  0.47000000000E+01 0.  1.
         13    1    6    6    0    0 -0.11188565465E+02 -0.49738768668E+02 -0.17713196563E+02  0.53971163025E+02  0.00000000000E+00 0. -1.
        -14    1    6    6    0    0  0.14438194232E+02 -0.27173690585E+02  0.56096508324E+02  0.63981944007E+02  0.00000000000E+00 0.  1.
</event>
<event>
12    1  0.1596842E-001  0.1990164E+03  0.7818608E-02  0.1153759E+00
         21   -1    0    0  501  502  0.00000000000E+00  0.00000000000E+00  0.15413290895E+04  0.15413290895E+04  0.00000000000E+00 0. -1.
         21   -1    0    0  502  503 -0.00000000000E+00 -0.00000000000E+00 -0.23896533384E+02  0.23896533384E+02  0.00000000000E+00 0. -1.
         -6    2    1    2    0  503  0.65746290383E+02  0.15395173740E+02  0.75704417497E+03  0.77922434553E+03  0.17179962669E+03 0.  0.
        -24    2    3    3    0    0  0.61350135650E+02  0.76727211607E+01  0.76141600819E+03  0.76826234863E+03  0.81547464706E+02 0.  0.
          6    2    1    2  501    0 -0.65746290383E+02 -0.15395173740E+02  0.76038838114E+03  0.78600127736E+03  0.18721092851E+03 0.  0.
         24    2    5    5    0    0 -0.78484659752E+02 -0.74832922847E+02  0.45630783496E+03  0.47586875626E+03  0.80463810387E+02 0.  0.
          5    1    5    5  501    0  0.12738369369E+02  0.59437749107E+02  0.30408054618E+03  0.31013252109E+03  0.47000000000E+01 0. -1.
        -13    1    6    6    0    0 -0.18205186230E+02 -0.32594603976E+02  0.47140346806E+02  0.60133595527E+02  0.00000000000E+00 0.  1.
         14    1    6    6    0    0 -0.60279473522E+02 -0.42238318871E+02  0.40916748815E+03  0.41573516073E+03  0.00000000000E+00 0. -1.
         -5    1    3    3    0  503  0.43961547335E+01  0.77224525794E+01 -0.43718332190E+01  0.10961996897E+02  0.47000000000E+01 0.  1.
         13    1    4    4    0    0  0.83910949159E+01 -0.16777485292E+02  0.36828602572E+02  0.41330865634E+02  0.00000000000E+00 0. -1.
        -14    1    4    4    0    0  0.52959040734E+02  0.24450206453E+02  0.72458740562E+03  0.72693148300E+03  0.00000000000E+00 0.  1.
</event>
<event>
12    1  0.1596842E-001  0.2133775E+03  0.7818608E-02  0.1138952E+00
         21   -1    0    0  501  502  0.00000000000E+00  0.00000000000E+00  0.14976471298E+03  0.14976471298E+03  0.00000000000E+00 0.  1.
         21   -1    0    0  502  503 -0.00000000000E+00 -0.00000000000E+00 -0.31005050773E+03  0.31005050773E+03  0.00000000000E+00 0. -1.
         -6    2    1    2    0  503  0.97699494300E+02  0.79555379387E+02 -0.11291245986E+03  0.24141077372E+03  0.17220827071E+03 0.  0.
        -24    2    3    3    0    0  0.61938777517E+01 -0.40149600423E+01 -0.77602675577E+02  0.11246834332E+03  0.81070765175E+02 0.  0.
          6    2    1    2  501    0 -0.97699494300E+02 -0.79555379387E+02 -0.47373334898E+02  0.21840444699E+03  0.17199424417E+03 0.  0.
         24    2    5    5    0    0 -0.72137826368E+02 -0.12172449501E+03 -0.32306333489E+02  0.16662860599E+03  0.81857647598E+02 0.  0.
          5    1    5    5  501    0 -0.25561667932E+02  0.42169115624E+02 -0.15067001409E+02  0.51775841002E+02  0.47000000000E+01 0. -1.
        -13    1    6    6    0    0 -0.28990621128E+02 -0.30052331852E+02  0.26524172186E+02  0.49468479593E+02  0.00000000000E+00 0.  1.
         14    1    6    6    0    0 -0.43147205241E+02 -0.91672163159E+02 -0.58830505675E+02  0.11716012639E+03  0.00000000000E+00 0. -1.
         -5    1    3    3    0  503  0.91505616548E+02  0.83570339429E+02 -0.35309784280E+02  0.12894243040E+03  0.47000000000E+01 0.  1.
         11    1    4    4    0    0  0.33353248212E+02  0.10016198326E+02 -0.73875583839E+02  0.81672304258E+02  0.00000000000E+00 0. -1.
        -12    1    4    4    0    0 -0.27159370460E+02 -0.14031158369E+02 -0.37270917379E+01  0.30796039060E+02  0.00000000000E+00 0.  1.
</event>
<event>
12    1  0.1596842E-001  0.2822410E+03  0.7818608E-02  0.1094732E+00
         21   -1    0    0  501  502  0.00000000000E+00  0.00000000000E+00  0.23797223765E+03  0.23797223765E+03  0.00000000000E+00 0.  1.
         21   -1    0    0  502  503 -0.00000000000E+00 -0.00000000000E+00 -0.35520702507E+03  0.35520702507E+03  0.00000000000E+00 0. -1.
         -6    2    1    2    0  503  0.15651428199E+03  0.15776750398E+03  0.16236453316E+02  0.28270765125E+03  0.17399048214E+03 0.  0.
        -24    2    3    3    0    0  0.36134409109E+02  0.11796659427E+03 -0.29004564256E+02  0.14800699839E+03  0.76439478924E+02 0.  0.
          6    2    1    2  501    0 -0.15651428199E+03 -0.15776750398E+03 -0.13347124073E+03  0.31047161147E+03  0.17085298840E+03 0.  0.
         24    2    5    5    0    0 -0.20554504319E+02 -0.97329524693E+02 -0.37343670738E+02  0.13327000257E+03  0.80441406098E+02 0.  0.
          5    1    5    5  501    0 -0.13595977768E+03 -0.60437979292E+02 -0.96127569993E+02  0.17720160891E+03  0.47000000000E+01 0. -1.
        -13    1    6    6    0    0 -0.33484256107E+02 -0.94059060147E+02 -0.52728000852E+02  0.11290945167E+03  0.00000000000E+00 0.  1.
         14    1    6    6    0    0  0.12929751789E+02 -0.32704645456E+01  0.15384330115E+02  0.20360550895E+02  0.00000000000E+00 0. -1.
         -5    1    3    3    0  503  0.12037987288E+03  0.39800909713E+02  0.45241017572E+02  0.13470065286E+03  0.47000000000E+01 0.  1.
         13    1    4    4    0    0  0.26690948317E+02  0.63888669199E+02 -0.53883779069E+02  0.87736140905E+02  0.00000000000E+00 0. -1.
        -14    1    4    4    0    0  0.94434607923E+01  0.54077925073E+02  0.24879214813E+02  0.60270857482E+02  0.00000000000E+00 0.  1.
</event>
<event>
12    1  0.1596842E-001  0.1746557E+03  0.7818608E-02  0.1174143E+00
         21   -1    0    0  503  502  0.00000000000E+00  0.00000000000E+00  0.83890006233E+02  0.83890006233E+02  0.00000000000E+00 0. -1.
         21   -1    0    0  501  503 -0.00000000000E+00 -0.00000000000E+00 -0.66635915688E+03  0.66635915688E+03  0.00000000000E+00 0. -1.
          6    2    1    2  501    0  0.92244659433E+01 -0.25311387972E+02 -0.54953217235E+03  0.57661965680E+03  0.17256553257E+03 0.  0.
         24    2    3    3    0    0 -0.46470674983E+02 -0.36031269453E+02 -0.20887832532E+03  0.23124450125E+03  0.79913006174E+02 0.  0.
         -6    2    1    2    0  502 -0.92244659433E+01  0.25311387972E+02 -0.32936978297E+02  0.17362950631E+03  0.16833479672E+03 0.  0.
        -24    2    5    5    0    0 -0.37935949189E+02 -0.37455191659E+02 -0.13336746851E+01  0.97571294470E+02  0.81708941942E+02 0.  0.
          5    1    3    3  501    0  0.55695140926E+02  0.10719881480E+02 -0.34065384702E+03  0.34537515555E+03  0.47000000000E+01 0. -1.
        -13    1    4    4    0    0 -0.37455841440E+02 -0.90055012684E+01 -0.19639916315E+03  0.20014162584E+03  0.00000000000E+00 0.  1.
         14    1    4    4    0    0 -0.90148335430E+01 -0.27025768184E+02 -0.12479162178E+02  0.31102875404E+02  0.00000000000E+00 0. -1.
         -5    1    5    5    0  502  0.28711483246E+02  0.62766579631E+02 -0.31603303612E+02  0.76058211838E+02  0.47000000000E+01 0.  1.
         11    1    6    6    0    0 -0.38200882936E+02  0.17773078354E+02 -0.36735470102E+01  0.42292844772E+02  0.00000000000E+00 0. -1.
        -12    1    6    6    0    0  0.26493374677E+00 -0.55228270013E+02  0.23398723251E+01  0.55278449698E+02  0.00000000000E+00 0.  1.
</event>
<event>
12    1  0.1596842E-001  0.1801566E+03  0.7818608E-02  0.1168346E+00
         21   -1    0    0  501  502  0.00000000000E+00  0.00000000000E+00  0.14588933594E+03  0.14588933594E+03  0.00000000000E+00 0.  1.
         21   -1    0    0  502  503 -0.00000000000E+00 -0.00000000000E+00 -0.30034464615E+03  0.30034464615E+03  0.00000000000E+00 0. -1.
         -6    2    1    2    0  503 -0.24571595877E+02  0.47820569319E+02 -0.19291275718E+03  0.26201843106E+03  0.16896081250E+03 0.  0.
        -24    2    3    3    0    0 -0.63941736620E+02 -0.11958454612E+02 -0.13327540901E+03  0.16873261767E+03  0.80478638773E+02 0.  0.
          6    2    1    2  501    0  0.24571595877E+02 -0.47820569319E+02  0.38457446964E+02  0.18421555102E+03  0.17194715420E+03 0.  0.
         24    2    5    5    0    0 -0.15233708358E+02 -0.58092062276E+02  0.78136159862E+02  0.12688793054E+03  0.79928304556E+02 0.  0.
          5    1    5    5  501    0  0.39805304235E+02  0.10271492957E+02 -0.39678712899E+02  0.57327620482E+02  0.47000000000E+01 0. -1.
        -11    1    6    6    0    0 -0.15754206554E+02 -0.23589746370E+02  0.86794147088E+02  0.91312075470E+02  0.00000000000E+00 0.  1.
         12    1    6    6    0    0  0.52049819653E+00 -0.34502315906E+02 -0.86579872252E+01  0.35575855071E+02  0.00000000000E+00 0. -1.
         -5    1    3    3    0  503  0.39370140743E+02  0.59779023931E+02 -0.59637348163E+02  0.93285813392E+02  0.47000000000E+01 0.  1.
         13    1    4    4    0    0 -0.98314474825E+01 -0.38632867923E+02 -0.33193851084E+02  0.51874729815E+02  0.00000000000E+00 0. -1.
        -14    1    4    4    0    0 -0.54110289137E+02  0.26674413311E+02 -0.10008155793E+03  0.11685788785E+03  0.00000000000E+00 0.  1.
</event>
<event>
12    1  0.1596842E-001  0.2068268E+03  0.7818608E-02  0.1147262E+00
         21   -1    0    0  501  502  0.00000000000E+00  0.00000000000E+00  0.13893050049E+04  0.13893050049E+04  0.00000000000E+00 0. -1.
         21   -1    0    0  502  503 -0.00000000000E+00 -0.00000000000E+00 -0.46145769680E+02  0.46145769680E+02  0.00000000000E+00 0. -1.
         -6    2    1    2    0  503 -0.83412911359E+02  0.26061139940E+02  0.24482329229E+03  0.32049298328E+03  0.18745775813E+03 0.  0.
        -24    2    3    3    0    0 -0.11431783831E+03  0.24904685123E+02  0.25134367690E+03  0.28853899584E+03  0.79951839911E+02 0.  0.
          6    2    1    2  501    0  0.83412911359E+02 -0.26061139940E+02  0.10983359430E+04  0.11149577913E+04  0.17073996625E+03 0.  0.
         24    2    5    5    0    0 -0.70990202957E+01 -0.31695739988E+02  0.33674121470E+03  0.34796836599E+03  0.81439069415E+02 0.  0.
          5    1    5    5  501    0  0.90511931655E+02  0.56346000477E+01  0.76159472826E+03  0.76698942535E+03  0.47000000000E+01 0. -1.
        -11    1    6    6    0    0 -0.18582810408E+01  0.22653646482E+02  0.19077044952E+03  0.19211976816E+03  0.00000000000E+00 0.  1.
         12    1    6    6    0    0 -0.52407392548E+01 -0.54349386470E+02  0.14597076518E+03  0.15584859783E+03  0.00000000000E+00 0. -1.
         -5    1    3    3    0  503  0.30904926948E+02  0.11564548170E+01 -0.65203846105E+01  0.31953987433E+02  0.47000000000E+01 0.  1.
         13    1    4    4    0    0 -0.47795891826E+02  0.43652484480E+02  0.16937079027E+03  0.18131864568E+03  0.00000000000E+00 0. -1.
        -14    1    4    4    0    0 -0.66521946482E+02 -0.18747799357E+02  0.81972886636E+02  0.10722035016E+03  0.00000000000E+00 0.  1.
</event>
<event>
12    1  0.1596842E-001  0.2548511E+03  0.7818608E-02  0.1110674E+00
         21   -1    0    0  501  502  0.00000000000E+00  0.00000000000E+00  0.47397177356E+03  0.47397177356E+03  0.00000000000E+00 0.  1.
         21   -1    0    0  502  503 -0.00000000000E+00 -0.00000000000E+00 -0.16719536761E+03  0.16719536761E+03  0.00000000000E+00 0.  1.
         -6    2    1    2    0  503  0.15102307878E+03 -0.10479884615E+03  0.14781164304E+02  0.25527942987E+03  0.17651724000E+03 0.  0.
        -24    2    3    3    0    0  0.22837870946E+01 -0.57328880690E+02  0.50172057712E+00  0.98426737745E+02  0.79973462692E+02 0.  0.
          6    2    1    2  501    0 -0.15102307878E+03  0.10479884615E+03  0.29199524165E+03  0.38588771130E+03  0.17279275480E+03 0.  0.
         24    2    5    5    0    0 -0.46853350275E+02  0.82700712231E+02  0.23224650829E+03  0.26369253546E+03  0.80997953137E+02 0.  0.
          5    1    5    5  501    0 -0.10416972851E+03  0.22098133914E+02  0.59748733360E+02  0.12219517584E+03  0.47000000000E+01 0. -1.
        -13    1    6    6    0    0 -0.52780842254E+02  0.16576796913E+02  0.76694944480E+02  0.94565966466E+02  0.00000000000E+00 0.  1.
         14    1    6    6    0    0  0.59274919792E+01  0.66123915318E+02  0.15555156381E+03  0.16912656900E+03  0.00000000000E+00 0. -1.
         -5    1    3    3    0  503  0.14873929169E+03 -0.47469965456E+02  0.14279443727E+02  0.15685269212E+03  0.47000000000E+01 0.  1.
         11    1    4    4    0    0 -0.10518841970E+02  0.73614925396E+01  0.24979109171E+02  0.28085467840E+02  0.00000000000E+00 0. -1.
        -12    1    4    4    0    0  0.12802629065E+02 -0.64690373229E+02 -0.24477388594E+02  0.70341269905E+02  0.00000000000E+00 0.  1.
</event>
<event>
12    1  0.1596842E-001  0.2030745E+03  0.7818608E-02  0.1148211E+00
         21   -1    0    0  501  502  0.00000000000E+00  0.00000000000E+00  0.44071254212E+03  0.44071254212E+03  0.00000000000E+00 0. -1.
         21   -1    0    0  502  503 -0.00000000000E+00 -0.00000000000E+00 -0.92612353804E+02  0.92612353804E+02  0.00000000000E+00 0.  1.
         -6    2    1    2    0  503 -0.95395563895E+02  0.10524551194E+02  0.14018903196E+03  0.24269400415E+03  0.17330993964E+03 0.  0.
        -24    2    3    3    0    0 -0.45007742488E+02  0.69715611676E+02  0.56612401856E+02  0.12845890759E+03  0.80067243608E+02 0.  0.
          6    2    1    2  501    0  0.95395563895E+02 -0.10524551194E+02  0.20791115635E+03  0.29063089177E+03  0.17896420460E+03 0.  0.
         24    2    5    5    0    0  0.39915526221E+02 -0.67686146527E+02  0.16783083111E+03  0.20133360720E+03  0.78697965982E+02 0.  0.
          5    1    5    5  501    0  0.55480037674E+02  0.57161595333E+02  0.40080325238E+02  0.89297284575E+02  0.47000000000E+01 0. -1.
        -13    1    6    6    0    0  0.48655731245E+02 -0.20011358176E+02  0.44803470202E+02  0.69102717610E+02  0.00000000000E+00 0.  1.
         14    1    6    6    0    0 -0.87402050235E+01 -0.47674788351E+02  0.12302736091E+03  0.13223088959E+03  0.00000000000E+00 0. -1.
         -5    1    3    3    0  503 -0.50387821407E+02 -0.59191060483E+02  0.83576630108E+02  0.11423509657E+03  0.47000000000E+01 0.  1.
         13    1    4    4    0    0 -0.23678553286E+01 -0.17063704932E+02  0.16254084516E+02  0.23684848075E+02  0.00000000000E+00 0. -1.
        -14    1    4    4    0    0 -0.42639887159E+02  0.86779316609E+02  0.40358317341E+02  0.10477405951E+03  0.00000000000E+00 0.  1.
</event>
<event>
12    1  0.1596842E-001  0.1860746E+03  0.7818608E-02  0.1162364E+00
         21   -1    0    0  503  502  0.00000000000E+00  0.00000000000E+00  0.34650061442E+03  0.34650061442E+03  0.00000000000E+00 0.  1.
         21   -1    0    0  501  503 -0.00000000000E+00 -0.00000000000E+00 -0.14928034258E+03  0.14928034258E+03  0.00000000000E+00 0.  1.
          6    2    1    2  501    0 -0.70423416604E+02 -0.15215644093E+02 -0.44729774445E+02  0.19137527870E+03  0.17155981798E+03 0.  0.
         24    2    3    3    0    0 -0.42101695859E+01 -0.59949166220E+02 -0.50628862696E+02  0.11111214068E+03  0.78555700048E+02 0.  0.
         -6    2    1    2    0  502  0.70423416604E+02  0.15215644093E+02  0.24195004628E+03  0.30440567831E+03  0.17009414646E+03 0.  0.
        -24    2    5    5    0    0  0.14538252749E+02 -0.14026107081E+02  0.41362581824E+02  0.94082944280E+02  0.82052694998E+02 0.  0.
          5    1    3    3  501    0 -0.66213247018E+02  0.44733522127E+02  0.58990882515E+01  0.80263138019E+02  0.47000000000E+01 0. -1.
        -11    1    4    4    0    0 -0.34940577923E+02 -0.57365882344E+02 -0.27576260574E+02  0.72609493800E+02  0.00000000000E+00 0.  1.
         12    1    4    4    0    0  0.30730408337E+02 -0.25832838762E+01 -0.23052602122E+02  0.38502646880E+02  0.00000000000E+00 0. -1.
         -5    1    5    5    0  502  0.55885163855E+02  0.29241751175E+02  0.20058746446E+03  0.21032273403E+03  0.47000000000E+01 0.  1.
         11    1    6    6    0    0  0.36436363282E+02 -0.37561617609E+02  0.24506608761E+02  0.57784578909E+02  0.00000000000E+00 0. -1.
        -12    1    6    6    0    0 -0.21898110533E+02  0.23535510528E+02  0.16855973063E+02  0.36298365372E+02  0.00000000000E+00 0.  1.
</event>
<event>
12    1  0.1596842E-001  0.2384666E+03  0.7818608E-02  0.1122303E+00
         21   -1    0    0  501  502  0.00000000000E+00  0.00000000000E+00  0.62028023394E+03  0.62028023394E+03  0.00000000000E+00 0. -1.
         21   -1    0    0  502  503 -0.00000000000E+00 -0.00000000000E+00 -0.94325630444E+02  0.94325630444E+02  0.00000000000E+00 0.  1.
         -6    2    1    2    0  503  0.13522005028E+02  0.15059761361E+03  0.35725423845E+03  0.42953102932E+03  0.18440127011E+03 0.  0.
        -24    2    3    3    0    0  0.68782434352E+02  0.52347921215E+02  0.23403768435E+03  0.26246479603E+03  0.81503394560E+02 0.  0.
          6    2    1    2  501    0 -0.13522005028E+02 -0.15059761361E+03  0.16870036505E+03  0.28507483507E+03  0.17304728422E+03 0.  0.
         24    2    5    5    0    0  0.17086644473E+01 -0.10291318953E+03  0.24761266594E+02  0.13260735769E+03  0.79859544679E+02 0.  0.
          5    1    5    5  501    0 -0.15230669475E+02 -0.47684424074E+02  0.14393909846E+03  0.15246747737E+03  0.47000000000E+01 0. -1.
        -11    1    6    6    0    0  0.30960661072E+02 -0.91042187564E+02  0.29721821768E+02  0.10065102652E+03  0.00000000000E+00 0.  1.
         12    1    6    6    0    0 -0.29251996625E+02 -0.11871001971E+02 -0.49605551737E+01  0.31956331171E+02  0.00000000000E+00 0. -1.
         -5    1    3    3    0  503 -0.55260429324E+02  0.98249692393E+02  0.12321655409E+03  0.16706623329E+03  0.47000000000E+01 0.  1.
         11    1    4    4    0    0 -0.17957765237E+02  0.27793342194E+01  0.47524970570E+02  0.50880535165E+02  0.00000000000E+00 0. -1.
        -12    1    4    4    0    0  0.86740199588E+02  0.49568586996E+02  0.18651271378E+03  0.21158426086E+03  0.00000000000E+00 0.  1.
</event>
<event>
12    1  0.1596842E-001  0.1750978E+03  0.7818608E-02  0.1172675E+00
         21   -1    0    0  503  502  0.00000000000E+00  0.00000000000E+00  0.38925170195E+03  0.38925170195E+03  0.00000000000E+00 0.  1.
         21   -1    0    0  501  503 -0.00000000000E+00 -0.00000000000E+00 -0.13889682743E+03  0.13889682743E+03  0.00000000000E+00 0.  1.
          6    2    1    2  501    0  0.47379206058E+01 -0.32730463520E+02 -0.48649623749E+02  0.18173063724E+03  0.17194623429E+03 0.  0.
         24    2    3    3    0    0  0.68035986927E+02 -0.59985324821E+01 -0.29282219495E+02  0.11018744969E+03  0.81356916000E+02 0.  0.
         -6    2    1    2    0  502 -0.47379206058E+01  0.32730463520E+02  0.29900449826E+03  0.34641789214E+03  0.17177873816E+03 0.  0.
        -24    2    5    5    0    0  0.15962603269E+02  0.19304808256E+02  0.48905070054E+02  0.95060429756E+02  0.77571251785E+02 0.  0.
          5    1    3    3  501    0 -0.63298066322E+02 -0.26731931038E+02 -0.19367404254E+02  0.71543187549E+02  0.47000000000E+01 0. -1.
        -11    1    4    4    0    0  0.36983623352E+02  0.12330454039E+02 -0.53904382688E+02  0.66524514023E+02  0.00000000000E+00 0.  1.
         12    1    4    4    0    0  0.31052363575E+02 -0.18328986521E+02  0.24622163193E+02  0.43662935664E+02  0.00000000000E+00 0. -1.
         -5    1    5    5    0  502 -0.20700523875E+02  0.13425655264E+02  0.25009942821E+03  0.25135746239E+03  0.47000000000E+01 0.  1.
         13    1    6    6    0    0 -0.24646991009E+02  0.29786479954E+02  0.30570208458E+02  0.49287383771E+02  0.00000000000E+00 0. -1.
        -14    1    6    6    0    0  0.40609594278E+02 -0.10481671699E+02  0.18334861596E+02  0.45773045985E+02  0.00000000000E+00 0.  1.
</event>
<event>
12    1  0.1596842E-001  0.1849811E+03  0.7818608E-02  0.1163286E+00
         21   -1    0    0  501  502  0.00000000000E+00  0.00000000000E+00  0.12304838551E+03  0.12304838551E+03  0.00000000000E+00 0.  1.
         21   -1    0    0  502  503 -0.00000000000E+00 -0.00000000000E+00 -0.28682972374E+03  0.28682972374E+03  0.00000000000E+00 0.  1.
         -6    2    1    2    0  503  0.58231883956E+02  0.26515330168E+02 -0.12023159422E+03  0.21983972420E+03  0.17256840106E+03 0.  0.
        -24    2    3    3    0    0  0.11424120763E+02 -0.69180527835E+01 -0.13723455747E+03  0.15967371594E+03  0.80523299783E+02 0.  0.
          6    2    1    2  501    0 -0.58231883956E+02 -0.26515330168E+02 -0.43549744011E+02  0.19003838505E+03  0.17356264733E+03 0.  0.
         24    2    5    5    0    0  0.24886859330E+01 -0.24915383170E+02  0.36018756039E+02  0.89824695181E+02  0.78384661775E+02 0.  0.
          5    1    5    5  501    0 -0.60720569888E+02 -0.15999469982E+01 -0.79568500050E+02  0.10021368987E+03  0.47000000000E+01 0. -1.
        -11    1    6    6    0    0 -0.23689929787E+02 -0.42768759386E+02  0.12793608590E+02  0.50537668857E+02  0.00000000000E+00 0.  1.
         12    1    6    6    0    0  0.26178615720E+02  0.17853376217E+02  0.23225147449E+02  0.39287026324E+02  0.00000000000E+00 0. -1.
         -5    1    3    3    0  503  0.46807763193E+02  0.33433382951E+02  0.17002963247E+02  0.60166008260E+02  0.47000000000E+01 0.  1.
         13    1    4    4    0    0  0.39985209016E+02 -0.22569457978E+02 -0.10104088936E+03  0.11098404703E+03  0.00000000000E+00 0. -1.
        -14    1    4    4    0    0 -0.28561088253E+02  0.15651405194E+02 -0.36193668113E+02  0.48689668907E+02  0.00000000000E+00 0.  1.
</event>
<event>
12    1  0.1596842E-001  0.2381538E+03  0.7818608E-02  0.1121790E+00
         21   -1    0    0  503  502  0.00000000000E+00  0.00000000000E+00  0.42568409384E+03  0.42568409384E+03  0.00000000000E+00 0.  1.
         21   -1    0    0  501  503 -0.00000000000E+00 -0.00000000000E+00 -0.19418373664E+03  0.19418373664E+03  0.00000000000E+00 0.  1.
          6    2    1    2  501    0  0.11740502560E+03 -0.11540621966E+03 -0.60654256052E+02  0.24575629436E+03  0.17208916837E+03 0.  0.
         24    2    3    3    0    0  0.10353845554E+03 -0.50353296005E+02  0.22549949850E+02  0.13912986930E+03  0.74786055520E+02 0.  0.
         -6    2    1    2    0  502 -0.11740502560E+03  0.11540621966E+03  0.29215461325E+03  0.37411153611E+03  0.16583904196E+03 0.  0.
        -24    2    5    5    0    0 -0.82847151977E+02  0.92582808603E+02  0.10203986376E+03  0.17948146984E+03  0.79788703349E+02 0.  0.
          5    1    3    3  501    0  0.13866570059E+02 -0.65052923653E+02 -0.83204205902E+02  0.10662642506E+03  0.47000000000E+01 0. -1.
        -13    1    4    4    0    0  0.83499933057E+02 -0.67305579902E+02  0.46298888825E+01  0.10734857138E+03  0.00000000000E+00 0.  1.
         14    1    4    4    0    0  0.20038522482E+02  0.16952283897E+02  0.17920060967E+02  0.31781297923E+02  0.00000000000E+00 0. -1.
         -5    1    5    5    0  502 -0.34557873622E+02  0.22823411055E+02  0.19011474949E+03  0.19463006627E+03  0.47000000000E+01 0.  1.
         11    1    6    6    0    0 -0.21995627108E+02  0.77681134957E+02  0.35827989349E+02  0.88327861747E+02  0.00000000000E+00 0. -1.
        -12    1    6    6    0    0 -0.60851524869E+02  0.14901673647E+02  0.66211874407E+02  0.91153608096E+02  0.00000000000E+00 0.  1.
</event>
<event>
12    1  0.1596842E-001  0.1970115E+03  0.7818608E-02  0.1153579E+00
         21   -1    0    0  503  502  0.00000000000E+00  0.00000000000E+00  0.27226804271E+03  0.27226804271E+03  0.00000000000E+00 0. -1.
         21   -1    0    0  501  503 -0.00000000000E+00 -0.00000000000E+00 -0.14232319121E+03  0.14232319121E+03  0.00000000000E+00 0. -1.
          6    2    1    2  501    0 -0.22672124663E+02 -0.79106095389E+02  0.10074875123E+03  0.22127777518E+03  0.17900207639E+03 0.  0.
         24    2    3    3    0    0 -0.63785180032E+02  0.23654840752E+01  0.75407956430E+02  0.12645084091E+03  0.78925981576E+02 0.  0.
         -6    2    1    2    0  502  0.22672124663E+02  0.79106095389E+02  0.29196100272E+02  0.19331345874E+03  0.17246994374E+03 0.  0.
        -24    2    5    5    0    0 -0.28817960283E+02  0.48856296518E+02 -0.37411622963E+02  0.10373132897E+03  0.78378227418E+02 0.  0.
          5    1    3    3  501    0  0.41113055370E+02 -0.81471579464E+02  0.25340794802E+02  0.94826934272E+02  0.47000000000E+01 0. -1.
        -13    1    4    4    0    0 -0.37897348771E+02  0.39920439729E+02  0.33053938113E+02  0.64206022901E+02  0.00000000000E+00 0.  1.
         14    1    4    4    0    0 -0.25887831262E+02 -0.37554955654E+02  0.42354018317E+02  0.62244818010E+02  0.00000000000E+00 0. -1.
         -5    1    5    5    0  502  0.51490084946E+02  0.30249798871E+02  0.66607723235E+02  0.89582129769E+02  0.47000000000E+01 0.  1.
         11    1    6    6    0    0  0.18631690703E+02  0.45479727217E+02 -0.20347578126E+02  0.53193697200E+02  0.00000000000E+00 0. -1.
        -12    1    6    6    0    0 -0.47449650986E+02  0.33765693013E+01 -0.17064044837E+02  0.50537631772E+02  0.00000000000E+00 0.  1.
</event>
<event>
12    1  0.1596842E-001  0.1956432E+03  0.7818608E-02  0.1153562E+00
         21   -1    0    0  501  502  0.00000000000E+00  0.00000000000E+00  0.60525073498E+03  0.60525073498E+03  0.00000000000E+00 0.  1.
         21   -1    0    0  502  503 -0.00000000000E+00 -0.00000000000E+00 -0.76417817444E+02  0.76417817444E+02  0.00000000000E+00 0.  1.
         -6    2    1    2    0  503  0.24385976052E+02  0.89412970920E+02  0.12237258059E+03  0.23076246684E+03  0.17229890431E+03 0.  0.
        -24    2    3    3    0    0 -0.17424911173E+02 -0.13604384793E+02  0.89432283354E+02  0.11471127533E+03  0.68350834428E+02 0.  0.
          6    2    1    2  501    0 -0.24385976052E+02 -0.89412970920E+02  0.40646033695E+03  0.45090608559E+03  0.17180493971E+03 0.  0.
         24    2    5    5    0    0  0.41052750430E+02 -0.84723135814E+02  0.29985244923E+03  0.32564015566E+03  0.85244833320E+02 0.  0.
          5    1    5    5  501    0 -0.65438726482E+02 -0.46898351063E+01  0.10660788772E+03  0.12526592993E+03  0.47000000000E+01 0. -1.
        -13    1    6    6    0    0 -0.23144604035E+02 -0.46227502256E+02  0.13617662493E+03  0.14565963009E+03  0.00000000000E+00 0.  1.
         14    1    6    6    0    0  0.64197354465E+02 -0.38495633558E+02  0.16367582430E+03  0.17998052557E+03  0.00000000000E+00 0. -1.
         -5    1    3    3    0  503  0.41810887225E+02  0.10301735571E+03  0.32940297232E+02  0.11605119151E+03  0.47000000000E+01 0.  1.
         11    1    4    4    0    0  0.99579976613E+01 -0.28994373790E+02  0.73185367967E+02  0.79346918738E+02  0.00000000000E+00 0. -1.
        -12    1    4    4    0    0 -0.27382908834E+02  0.15389988997E+02  0.16246915387E+02  0.35364356592E+02  0.00000000000E+00 0.  1.
</event>
<event>
12    1  0.1596842E-001  0.1844557E+03  0.7818608E-02  0.1163730E+00
         21   -1    0    0  503  502  0.00000000000E+00  0.00000000000E+00  0.10086971261E+03  0.10086971261E+03  0.00000000000E+00 0.  1.
         21   -1    0    0  501  503 -0.00000000000E+00 -0.00000000000E+00 -0.54385500380E+03  0.54385500380E+03  0.00000000000E+00 0.  1.
          6    2    1    2  501    0 -0.66653885552E+02  0.25773369116E+02 -0.42106308029E+03  0.45969339040E+03  0.17004966504E+03 0.  0.
         24    2    3    3    0    0  0.14208909962E+02 -0.22871409915E+02 -0.25985265759E+03  0.27283516443E+03  0.78680548927E+02 0.  0.
         -6    2    1    2    0  502  0.66653885552E+02 -0.25773369116E+02 -0.21922210893E+02  0.18503132601E+03  0.16926015851E+03 0.  0.
        -24    2    5    5    0    0  0.13265217230E+02 -0.71966653727E+02 -0.41368014638E+02  0.11165286369E+03  0.73483903672E+02 0.  0.
          5    1    3    3  501    0 -0.80862795514E+02  0.48644779031E+02 -0.16121042271E+03  0.18685822597E+03  0.47000000000E+01 0. -1.
        -11    1    4    4    0    0  0.34533857886E+02 -0.81639157077E+01 -0.49025592051E+02  0.60520620751E+02  0.00000000000E+00 0.  1.
         12    1    4    4    0    0 -0.20324947924E+02 -0.14707494207E+02 -0.21082706554E+03  0.21231454368E+03  0.00000000000E+00 0. -1.
         -5    1    5    5    0  502  0.53388668322E+02  0.46193284611E+02  0.19445803745E+02  0.73378462314E+02  0.47000000000E+01 0.  1.
         11    1    6    6    0    0 -0.26626124156E+02 -0.75881049482E+01 -0.14788599586E+02  0.31388413499E+02  0.00000000000E+00 0. -1.
        -12    1    6    6    0    0  0.39891341386E+02 -0.64378548779E+02 -0.26579415051E+02  0.80264450193E+02  0.00000000000E+00 0.  1.
</event>
<event>
12    1  0.1596842E-001  0.1866260E+03  0.7818608E-02  0.1165293E+00
         21   -1    0    0  503  502  0.00000000000E+00  0.00000000000E+00  0.23767646621E+03  0.23767646621E+03  0.00000000000E+00 0. -1.
         21   -1    0    0  501  503 -0.00000000000E+00 -0.00000000000E+00 -0.15643836064E+03  0.15643836064E+03  0.00000000000E+00 0. -1.
          6    2    1    2  501    0  0.39872000975E+02  0.60686648555E+02 -0.31422726955E+02  0.18925288570E+03  0.17192039205E+03 0.  0.
         24    2    3    3    0    0  0.17862689405E+02  0.10585673200E+03 -0.97212732259E+01  0.13431847637E+03  0.80138795591E+02 0.  0.
         -6    2    1    2    0  502 -0.39872000975E+02 -0.60686648555E+02  0.11266083253E+03  0.20486194115E+03  0.15493000345E+03 0.  0.
        -24    2    5    5    0    0 -0.48719237361E+02  0.91847008845E+01  0.88052779846E+02  0.13010951429E+03  0.81958958329E+02 0.  0.
          5    1    3    3  501    0  0.22009311570E+02 -0.45170083446E+02 -0.21701453729E+02  0.54934409329E+02  0.47000000000E+01 0. -1.
        -13    1    4    4    0    0 -0.80894934409E+00  0.13834656962E+02  0.29473631930E+02  0.32569112844E+02  0.00000000000E+00 0.  1.
         14    1    4    4    0    0  0.18671638749E+02  0.92022075039E+02 -0.39194905156E+02  0.10174936353E+03  0.00000000000E+00 0. -1.
         -5    1    5    5    0  502  0.88472363860E+01 -0.69871349440E+02  0.24608052683E+02  0.74752426857E+02  0.47000000000E+01 0.  1.
         13    1    6    6    0    0 -0.77328483826E+01 -0.21946831177E+02  0.72799419685E+02  0.76427847342E+02  0.00000000000E+00 0. -1.
        -14    1    6    6    0    0 -0.40986388978E+02  0.31131532062E+02  0.15253360161E+02  0.53681666947E+02  0.00000000000E+00 0.  1.
</event>
<event>
12    1  0.1596842E-001  0.4715336E+03  0.7818608E-02  0.1021539E+00
         21   -1    0    0  503  502  0.00000000000E+00  0.00000000000E+00  0.24475183803E+04  0.24475183803E+04  0.00000000000E+00 0.  1.
         21   -1    0    0  501  503 -0.00000000000E+00 -0.00000000000E+00 -0.20278148796E+03  0.20278148796E+03  0.00000000000E+00 0.  1.
          6    2    1    2  501    0 -0.43818295164E+03  0.10316759403E+02  0.13681660108E+03  0.49028322501E+03  0.17189567697E+03 0.  0.
         24    2    3    3    0    0 -0.38564068339E+03 -0.43005650293E+02  0.96682365878E+02  0.40521374656E+03  0.65440643982E+02 0.  0.
         -6    2    1    2    0  502  0.43818295164E+03 -0.10316759403E+02  0.21079202913E+04  0.21600166433E+04  0.17387699714E+03 0.  0.
        -24    2    5    5    0    0  0.29905230729E+03  0.60755546729E+02  0.14045447243E+04  0.14394835857E+04  0.79016402209E+02 0.  0.
          5    1    3    3  501    0 -0.52542268249E+02  0.53322409696E+02  0.40134235204E+02  0.85069478451E+02  0.47000000000E+01 0. -1.
        -13    1    4    4    0    0 -0.36275399208E+03 -0.26281919989E+02  0.80262916938E+02  0.37245581473E+03  0.00000000000E+00 0.  1.
         14    1    4    4    0    0 -0.22886691315E+02 -0.16723730304E+02  0.16419448941E+02  0.32757931836E+02  0.00000000000E+00 0. -1.
         -5    1    5    5    0  502  0.13913064435E+03 -0.71072306132E+02  0.70337556697E+03  0.72053305761E+03  0.47000000000E+01 0.  1.
         13    1    6    6    0    0 -0.17472456213E+01 -0.65167050793E+00  0.91051226200E-01  0.18670383065E+01  0.00000000000E+00 0. -1.
        -14    1    6    6    0    0  0.30079955291E+03  0.61407217237E+02  0.14044536731E+04  0.14376165474E+04  0.00000000000E+00 0.  1.
</event>
<event>
12    1  0.1596842E-001  0.1909098E+03  0.7818608E-02  0.1157897E+00
         21   -1    0    0  501  502  0.00000000000E+00  0.00000000000E+00  0.12674494757E+03  0.12674494757E+03  0.00000000000E+00 0. -1.
         21   -1    0    0  502  503 -0.00000000000E+00 -0.00000000000E+00 -0.43800010655E+03  0.43800010655E+03  0.00000000000E+00 0. -1.
         -6    2    1    2    0  503 -0.68838509107E+02 -0.46734810506E+02 -0.32174722370E+03  0.37354712729E+03  0.17056757459E+03 0.  0.
        -24    2    3    3    0    0 -0.44545153584E+02 -0.51832420479E+02 -0.32869372423E+03  0.34734604679E+03  0.89100175941E+02 0.  0.
          6    2    1    2  501    0  0.68838509107E+02  0.46734810506E+02  0.10492064719E+02  0.19119792683E+03  0.17182456447E+03 0.  0.
         24    2    5    5    0    0  0.46831718800E+01 -0.25069916600E+02 -0.28631239902E+02  0.87156833538E+02  0.78269616818E+02 0.  0.
          5    1    5    5  501    0  0.64155337227E+02  0.71804727106E+02  0.39123304621E+02  0.10404109329E+03  0.47000000000E+01 0. -1.
        -13    1    6    6    0    0  0.61140198666E+01 -0.30355079892E+02  0.20878010717E+02  0.37345728613E+02  0.00000000000E+00 0.  1.
         14    1    6    6    0    0 -0.14308479866E+01  0.52851632924E+01 -0.49509250619E+02  0.49811104925E+02  0.00000000000E+00 0. -1.
         -5    1    3    3    0  503 -0.24293355523E+02  0.50976099724E+01  0.69465005280E+01  0.26201080504E+02  0.47000000000E+01 0.  1.
         13    1    4    4    0    0 -0.71680222856E+02 -0.39412836989E+02 -0.22341471968E+03  0.23791923637E+03  0.00000000000E+00 0. -1.
        -14    1    4    4    0    0  0.27135069272E+02 -0.12419583489E+02 -0.10527900455E+03  0.10942681042E+03  0.00000000000E+00 0.  1.
</event>
<event>
12    1  0.1596842E-001  0.2828280E+03  0.7818608E-02  0.1094199E+00
         21   -1    0    0  501  502  0.00000000000E+00  0.00000000000E+00  0.20800046411E+03  0.20800046411E+03  0.00000000000E+00 0. -1.
         21   -1    0    0  502  503 -0.00000000000E+00 -0.00000000000E+00 -0.38455579102E+03  0.38455579102E+03  0.00000000000E+00 0. -1.
         -6    2    1    2    0  503 -0.88624560227E+02 -0.20537691142E+03 -0.98227773940E+02  0.29940003704E+03  0.17308292285E+03 0.  0.
        -24    2    3    3    0    0 -0.10431711132E+02 -0.34277495120E+02  0.19857044130E+01  0.86200686305E+02  0.78376323138E+02 0.  0.
          6    2    1    2  501    0  0.88624560227E+02  0.20537691142E+03 -0.78327552966E+02  0.29315621810E+03  0.17254383279E+03 0.  0.
         24    2    5    5    0    0 -0.44437180901E+01  0.15682932799E+03 -0.62486727557E+02  0.18689430566E+03  0.80060637126E+02 0.  0.
          5    1    5    5  501    0  0.93068278317E+02  0.48547583429E+02 -0.15840825409E+02  0.10626191244E+03  0.47000000000E+01 0. -1.
        -13    1    6    6    0    0 -0.19142720143E+02  0.16339293708E+02  0.11229624856E+02  0.27559403618E+02  0.00000000000E+00 0.  1.
         14    1    6    6    0    0  0.14699002053E+02  0.14049003429E+03 -0.73716352413E+02  0.15933490204E+03  0.00000000000E+00 0. -1.
         -5    1    3    3    0  503 -0.78192849095E+02 -0.17109941630E+03 -0.10021347835E+03  0.21319935073E+03  0.47000000000E+01 0.  1.
         13    1    4    4    0    0  0.11367754056E+02 -0.52085235398E+02  0.14719393521E+02  0.55306040578E+02  0.00000000000E+00 0. -1.
        -14    1    4    4    0    0 -0.21799465188E+02  0.17807740279E+02 -0.12733689108E+02  0.30894645727E+02  0.00000000000E+00 0.  1.
</event>
<event>
12    1  0.1596842E-001  0.2549573E+03  0.7818608E-02  0.1110215E+00
         21   -1    0    0  501  502  0.00000000000E+00  0.00000000000E+00  0.63468212007E+03  0.63468212007E+03  0.00000000000E+00 0. -1.
         21   -1    0    0  502  503 -0.00000000000E+00 -0.00000000000E+00 -0.13381110880E+03  0.13381110880E+03  0.00000000000E+00 0.  1.
         -6    2    1    2    0  503  0.92442386170E+02  0.16309175769E+03  0.64288154135E+02  0.26291652001E+03  0.17276461890E+03 0.  0.
        -24    2    3    3    0    0  0.80400060074E+02  0.42369810735E+02  0.72694365173E+02  0.14121376540E+03  0.79984287765E+02 0.  0.
          6    2    1    2  501    0 -0.92442386170E+02 -0.16309175769E+03  0.43658285713E+03  0.50557670887E+03  0.17279670488E+03 0.  0.
         24    2    5    5    0    0 -0.10510367310E+03 -0.77676364637E+02  0.35910229592E+03  0.38946717040E+03  0.75165272298E+02 0.  0.
          5    1    5    5  501    0  0.12661286930E+02 -0.85415393053E+02  0.77480561211E+02  0.11610953847E+03  0.47000000000E+01 0. -1.
        -11    1    6    6    0    0 -0.58418019405E+01 -0.23946773967E+02  0.14844011995E+03  0.15047273455E+03  0.00000000000E+00 0.  1.
         12    1    6    6    0    0 -0.99261871159E+02 -0.53729590670E+02  0.21066217598E+03  0.23899443585E+03  0.00000000000E+00 0. -1.
         -5    1    3    3    0  503  0.12042326096E+02  0.12072194695E+03 -0.84062110381E+01  0.12170275460E+03  0.47000000000E+01 0.  1.
         13    1    4    4    0    0 -0.63467883226E+01 -0.15514757634E+02  0.10877567103E+02  0.19982764887E+02  0.00000000000E+00 0. -1.
        -14    1    4    4    0    0  0.86746848397E+02  0.57884568369E+02  0.61816798070E+02  0.12123100051E+03  0.00000000000E+00 0.  1.
</event>
<event>
12    1  0.1596842E-001  0.3983354E+03  0.7818608E-02  0.1044375E+00
         21   -1    0    0  503  502  0.00000000000E+00  0.00000000000E+00  0.85137650455E+03  0.85137650455E+03  0.00000000000E+00 0. -1.
         21   -1    0    0  501  503 -0.00000000000E+00 -0.00000000000E+00 -0.25530608031E+03  0.25530608031E+03  0.00000000000E+00 0.  1.
          6    2    1    2  501    0  0.35830009745E+03 -0.26838243776E+02  0.10256162991E+02  0.39826923615E+03  0.17150493992E+03 0.  0.
         24    2    3    3    0    0  0.10418883600E+03  0.35955247777E+02  0.77267273027E+01  0.13646006170E+03  0.80084659794E+02 0.  0.
         -6    2    1    2    0  502 -0.35830009745E+03  0.26838243776E+02  0.58581426125E+03  0.70841334871E+03  0.17196474286E+03 0.  0.
        -24    2    5    5    0    0 -0.87052810221E+02  0.39908057803E+02  0.15860736097E+03  0.20217848571E+03  0.80925893794E+02 0.  0.
          5    1    3    3  501    0  0.25411126145E+03 -0.62793491553E+02  0.25294356882E+01  0.26180917445E+03  0.47000000000E+01 0. -1.
        -11    1    4    4    0    0  0.10904819037E+03  0.13131192505E+02  0.17387604296E+02  0.11120370867E+03  0.00000000000E+00 0.  1.
         12    1    4    4    0    0 -0.48593543682E+01  0.22824055272E+02 -0.96608769933E+01  0.25256353027E+02  0.00000000000E+00 0. -1.
         -5    1    5    5    0  502 -0.27124728723E+03 -0.13069814027E+02  0.42720690027E+03  0.50623486299E+03  0.47000000000E+01 0.  1.
         11    1    6    6    0    0 -0.25714245060E+02 -0.19791310437E+02  0.78513024972E+02  0.84954184465E+02  0.00000000000E+00 0. -1.
        -12    1    6    6    0    0 -0.61338565160E+02  0.59699368240E+02  0.80094336000E+02  0.11722430125E+03  0.00000000000E+00 0.  1.
</event>
<event>
12    1  0.1596842E-001  0.1926941E+03  0.7818608E-02  0.1156424E+00
         21   -1    0    0  501  502  0.00000000000E+00  0.00000000000E+00  0.18871021123E+04  0.18871021123E+04  0.00000000000E+00 0. -1.
         21   -1    0    0  502  503 -0.00000000000E+00 -0.00000000000E+00 -0.19626558178E+02  0.19626558178E+02  0.00000000000E+00 0. -1.
         -6    2    1    2    0  503  0.19248299702E+02  0.79700086810E+02  0.86319076535E+03  0.88443728123E+03  0.17438006239E+03 0.  0.
        -24    2    3    3    0    0 -0.35115062508E+02  0.90287260183E+02  0.71531707294E+03  0.72646202273E+03  0.81753890803E+02 0.  0.
          6    2    1    2  501    0 -0.19248299702E+02 -0.79700086810E+02  0.10042847888E+04  0.10222913893E+04  0.17253737769E+03 0.  0.
         24    2    5    5    0    0 -0.79191377914E+02 -0.35796255959E+02  0.62705486321E+03  0.63778491892E+03  0.77583213695E+02 0.  0.
          5    1    5    5  501    0  0.59943078213E+02 -0.43903830852E+02  0.37722992561E+03  0.38450647038E+03  0.47000000000E+01 0. -1.
        -11    1    6    6    0    0 -0.32622042284E+02  0.23974882112E+02  0.23834899543E+03  0.24176276851E+03  0.00000000000E+00 0.  1.
         12    1    6    6    0    0 -0.46569335630E+02 -0.59771138070E+02  0.38870586777E+03  0.39602215040E+03  0.00000000000E+00 0. -1.
         -5    1    3    3    0  503  0.54363362209E+02 -0.10587173373E+02  0.14787369240E+03  0.15797525849E+03  0.47000000000E+01 0.  1.
         11    1    4    4    0    0 -0.26184477897E+02  0.81176510402E+02  0.70475972100E+03  0.70990247011E+03  0.00000000000E+00 0. -1.
        -12    1    4    4    0    0 -0.89305846104E+01  0.91107497812E+01  0.10557351949E+02  0.16559552628E+02  0.00000000000E+00 0.  1.
</event>
<event>
12    1  0.1596842E-001  0.2308796E+03  0.7818608E-02  0.1126088E+00
         21   -1    0    0  503  502  0.00000000000E+00  0.00000000000E+00  0.25659135478E+03  0.25659135478E+03  0.00000000000E+00 0.  1.
         21   -1    0    0  501  503 -0.00000000000E+00 -0.00000000000E+00 -0.27683071848E+03  0.27683071848E+03  0.00000000000E+00 0. -1.
          6    2    1    2  501    0 -0.12927124658E+03 -0.83683222257E+02 -0.14367893021E+03  0.27161546065E+03  0.17151497486E+03 0.  0.
         24    2    3    3    0    0 -0.15735983204E+03 -0.50107797719E+02 -0.98402433406E+02  0.20846224278E+03  0.80626048097E+02 0.  0.
         -6    2    1    2    0  502  0.12927124658E+03  0.83683222257E+02  0.12343956651E+03  0.26180661261E+03  0.17202162347E+03 0.  0.
        -24    2    5    5    0    0  0.10954638503E+03  0.11671485587E+03  0.62555291002E+02  0.18963221280E+03  0.80152627187E+02 0.  0.
          5    1    3    3  501    0  0.28088585456E+02 -0.33575424537E+02 -0.45276496799E+02  0.63153217877E+02  0.47000000000E+01 0. -1.
        -11    1    4    4    0    0 -0.74666918472E+00 -0.28582470686E+01 -0.31640151394E+02  0.31777763789E+02  0.00000000000E+00 0.  1.
         12    1    4    4    0    0 -0.15661316285E+03 -0.47249550651E+02 -0.66762282012E+02  0.17668447899E+03  0.00000000000E+00 0. -1.
         -5    1    5    5    0  502  0.19724861548E+02 -0.33031633615E+02  0.60884275510E+02  0.72174399802E+02  0.47000000000E+01 0.  1.
         13    1    6    6    0    0  0.10936743517E+03  0.76145190678E+02  0.27626345488E+02  0.13609754187E+03  0.00000000000E+00 0. -1.
        -14    1    6    6    0    0  0.17894986628E+00  0.40569665193E+02  0.34928945514E+02  0.53534670931E+02  0.00000000000E+00 0.  1.
</event>
<event>
12    1  0.1596842E-001  0.2133497E+03  0.7818608E-02  0.1141681E+00
         21   -1    0    0  501  502  0.00000000000E+00  0.00000000000E+00  0.58607306460E+02  0.58607306460E+02  0.00000000000E+00 0. -1.
         21   -1    0    0  502  503 -0.00000000000E+00 -0.00000000000E+00 -0.92375167013E+03  0.92375167013E+03  0.00000000000E+00 0. -1.
         -6    2    1    2    0  503  0.91710037007E+02  0.63179024776E+02 -0.64744457094E+03  0.67754540857E+03  0.16577390680E+03 0.  0.
        -24    2    3    3    0    0 -0.10539679347E+02  0.51408718041E+02 -0.34847034676E+03  0.36131571146E+03  0.79771671911E+02 0.  0.
          6    2    1    2  501    0 -0.91710037007E+02 -0.63179024776E+02 -0.21769979273E+03  0.30481356802E+03  0.18197744760E+03 0.  0.
         24    2    5    5    0    0 -0.91652087948E+02 -0.10761945501E+03 -0.13495961002E+03  0.21077643157E+03  0.78933867533E+02 0.  0.
          5    1    5    5  501    0 -0.57949058857E-01  0.44440430239E+02 -0.82740182704E+02  0.94037136450E+02  0.47000000000E+01 0. -1.
        -11    1    6    6    0    0 -0.62455005026E+02 -0.14462176421E+02 -0.58247390363E+02  0.86617207781E+02  0.00000000000E+00 0.  1.
         12    1    6    6    0    0 -0.29197082922E+02 -0.93157278594E+02 -0.76712219661E+02  0.12415922379E+03  0.00000000000E+00 0. -1.
         -5    1    3    3    0  503  0.10224971635E+03  0.11770306735E+02 -0.29897422418E+03  0.31622969712E+03  0.47000000000E+01 0.  1.
         13    1    4    4    0    0  0.12054197672E+02  0.40183140405E+02 -0.32210019176E+03  0.32482075363E+03  0.00000000000E+00 0. -1.
        -14    1    4    4    0    0 -0.22593877019E+02  0.11225577637E+02 -0.26370155003E+02  0.36494957828E+02  0.00000000000E+00 0.  1.
</event>
<event>
12    1  0.1596842E-001  0.1766145E+03  0.7818608E-02  0.1171556E+00
         21   -1    0    0  501  502  0.00000000000E+00  0.00000000000E+00  0.39847259848E+02  0.39847259848E+02  0.00000000000E+00 0. -1.
         21   -1    0    0  502  503 -0.00000000000E+00 -0.00000000000E+00 -0.12940257803E+04  0.12940257803E+04  0.00000000000E+00 0. -1.
         -6    2    1    2    0  503  0.34997027524E+02  0.30455153876E+02 -0.10513023834E+04  0.10660344167E+04  0.17041234623E+03 0.  0.
        -24    2    3    3    0    0 -0.22271781008E+02  0.82693601662E+01 -0.28536007219E+03  0.29761939857E+03  0.81132737261E+02 0.  0.
          6    2    1    2  501    0 -0.34997027524E+02 -0.30455153876E+02 -0.20287613702E+03  0.26783862349E+03  0.16860158045E+03 0.  0.
         24    2    5    5    0    0  0.11141782705E+02  0.41082232270E+02 -0.12916461361E+03  0.15513606758E+03  0.74644577335E+02 0.  0.
          5    1    5    5  501    0 -0.46138810228E+02 -0.71537386146E+02 -0.73711523412E+02  0.11270255591E+03  0.47000000000E+01 0. -1.
        -13    1    6    6    0    0 -0.16637279432E+02  0.10338159948E+02 -0.10573785014E+03  0.10753682890E+03  0.00000000000E+00 0.  1.
         14    1    6    6    0    0  0.27779062137E+02  0.30744072322E+02 -0.23426763468E+02  0.47599238679E+02  0.00000000000E+00 0. -1.
         -5    1    3    3    0  503  0.57268808532E+02  0.22185793710E+02 -0.76594231124E+03  0.76841501809E+03  0.47000000000E+01 0.  1.
         11    1    4    4    0    0 -0.25195642007E+02 -0.20735718773E+02 -0.24845820186E+03  0.25059183642E+03  0.00000000000E+00 0. -1.
        -12    1    4    4    0    0  0.29238609990E+01  0.29005078940E+02 -0.36901870330E+02  0.47027562145E+02  0.00000000000E+00 0.  1.
</event>
<event>
12    1  0.1596842E-001  0.1950020E+03  0.7818608E-02  0.1154104E+00
         21   -1    0    0  501  502  0.00000000000E+00  0.00000000000E+00  0.25822701702E+03  0.25822701702E+03  0.00000000000E+00 0.  1.
         21   -1    0    0  502  503 -0.00000000000E+00 -0.00000000000E+00 -0.21493916071E+03  0.21493916071E+03  0.00000000000E+00 0. -1.
         -6    2    1    2    0  503 -0.61412509581E+01  0.89892074920E+02  0.15465579777E+03  0.24860303472E+03  0.17253044077E+03 0.  0.
        -24    2    3    3    0    0 -0.81843255961E+01  0.12298782746E+03  0.78924454778E+02  0.16579706089E+03  0.77888426280E+02 0.  0.
          6    2    1    2  501    0  0.61412509581E+01 -0.89892074920E+02 -0.11136794147E+03  0.22456314300E+03  0.17293781169E+03 0.  0.
         24    2    5    5    0    0 -0.44453305159E+02 -0.88960292759E+02 -0.34212556001E+02  0.13217417811E+03  0.80059255205E+02 0.  0.
          5    1    5    5  501    0  0.50594556118E+02 -0.93178216038E+00 -0.77155385467E+02  0.92388964889E+02  0.47000000000E+01 0. -1.
        -13    1    6    6    0    0 -0.19974833646E+02 -0.19351882348E+02  0.25131122427E+02  0.37484165244E+02  0.00000000000E+00 0.  1.
         14    1    6    6    0    0 -0.24478471514E+02 -0.69608410411E+02 -0.59343678428E+02  0.94690012868E+02  0.00000000000E+00 0. -1.
         -5    1    3    3    0  503  0.20430746379E+01 -0.33095752543E+02  0.75731342996E+02  0.82805973833E+02  0.47000000000E+01 0.  1.
         11    1    4    4    0    0  0.93528740223E+01  0.26181470762E+02 -0.13414758259E+02  0.30869101103E+02  0.00000000000E+00 0. -1.
        -12    1    4    4    0    0 -0.17537199618E+02  0.96806356701E+02  0.92339213037E+02  0.13492795979E+03  0.00000000000E+00 0.  1.
</event>
<event>
12    1  0.1596842E-001  0.2044911E+03  0.7818608E-02  0.1146075E+00
         21   -1    0    0  503  502  0.00000000000E+00  0.00000000000E+00  0.36289063740E+03  0.36289063740E+03  0.00000000000E+00 0.  1.
         21   -1    0    0  501  503 -0.00000000000E+00 -0.00000000000E+00 -0.40252482891E+03  0.40252482891E+03  0.00000000000E+00 0.  1.
          6    2    1    2  501    0  0.62344081749E+02 -0.89989366394E+02 -0.34325117195E+03  0.39954720509E+03  0.17271864826E+03 0.  0.
         24    2    3    3    0    0  0.80190496796E+02 -0.10163136974E+03 -0.18291611365E+03  0.23773419049E+03  0.79371213956E+02 0.  0.
         -6    2    1    2    0  502 -0.62344081749E+02  0.89989366394E+02  0.30361698044E+03  0.36586826122E+03  0.17231205171E+03 0.  0.
        -24    2    5    5    0    0 -0.79284886537E+02  0.24653755513E+01  0.19313489254E+03  0.22382664202E+03  0.80654247561E+02 0.  0.
          5    1    3    3  501    0 -0.17846415048E+02  0.11642003349E+02 -0.16033505830E+03  0.16181301460E+03  0.47000000000E+01 0. -1.
        -13    1    4    4    0    0  0.23853110267E+02 -0.22947247889E+02 -0.11458054060E+03  0.11926544906E+03  0.00000000000E+00 0.  1.
         14    1    4    4    0    0  0.56337386530E+02 -0.78684121854E+02 -0.68335573046E+02  0.11846874143E+03  0.00000000000E+00 0. -1.
         -5    1    5    5    0  502  0.16940804788E+02  0.87523990843E+02  0.11048208790E+03  0.14204161920E+03  0.47000000000E+01 0.  1.
         11    1    6    6    0    0 -0.10830744666E+01 -0.28824225482E+02  0.52248112299E+02  0.59681439860E+02  0.00000000000E+00 0. -1.
        -12    1    6    6    0    0 -0.78201812070E+02  0.31289601034E+02  0.14088678024E+03  0.16414520216E+03  0.00000000000E+00 0.  1.
</event>
<event>
12    1  0.1596842E-001  0.1750493E+03  0.7818608E-02  0.1172692E+00
         21   -1    0    0  501  502  0.00000000000E+00  0.00000000000E+00  0.40251653736E+02  0.40251653736E+02  0.00000000000E+00 0. -1.
         21   -1    0    0  502  503 -0.00000000000E+00 -0.00000000000E+00 -0.77182711715E+03  0.77182711715E+03  0.00000000000E+00 0.  1.
         -6    2    1    2    0  503  0.26803265667E+02 -0.10359714542E+02 -0.31786952389E+03  0.36286293255E+03  0.17263468616E+03 0.  0.
        -24    2    3    3    0    0  0.44340312353E+02 -0.62941102867E+02 -0.25974390294E+03  0.28240780086E+03  0.79747257908E+02 0.  0.
          6    2    1    2  501    0 -0.26803265667E+02  0.10359714542E+02 -0.41370593952E+03  0.44921583833E+03  0.17267462545E+03 0.  0.
         24    2    5    5    0    0 -0.84610029044E+02  0.14205096961E+01 -0.25820064549E+03  0.28300657942E+03  0.79147178101E+02 0.  0.
          5    1    5    5  501    0  0.57806763377E+02  0.89392048459E+01 -0.15550529403E+03  0.16620925891E+03  0.47000000000E+01 0. -1.
        -11    1    6    6    0    0 -0.27629141517E+02 -0.28719917883E+02 -0.44224337054E+02  0.59531463379E+02  0.00000000000E+00 0.  1.
         12    1    6    6    0    0 -0.56980887528E+02  0.30140427579E+02 -0.21397630844E+03  0.22347511604E+03  0.00000000000E+00 0. -1.
         -5    1    3    3    0  503 -0.17537046685E+02  0.52581388325E+02 -0.58125620954E+02  0.80455131694E+02  0.47000000000E+01 0.  1.
         13    1    4    4    0    0  0.20438876104E+02 -0.32013982616E+02 -0.27486561907E+02  0.46884473174E+02  0.00000000000E+00 0. -1.
        -14    1    4    4    0    0  0.23901436248E+02 -0.30927120251E+02 -0.23225734103E+03  0.23552332768E+03  0.00000000000E+00 0.  1.
</event>
<event>
12    1  0.1596842E-001  0.3052944E+03  0.7818608E-02  0.1082940E+00
         21   -1    0    0  503  502  0.00000000000E+00  0.00000000000E+00  0.12286648849E+03  0.12286648849E+03  0.00000000000E+00 0. -1.
         21   -1    0    0  501  503 -0.00000000000E+00 -0.00000000000E+00 -0.75786530270E+03  0.75786530270E+03  0.00000000000E+00 0. -1.
          6    2    1    2  501    0 -0.18720660118E+03 -0.16768214389E+03 -0.35690180452E+03  0.46966323697E+03  0.17332352751E+03 0.  0.
         24    2    3    3    0    0 -0.80185939481E+02 -0.81498931441E+02 -0.10801452016E+03  0.18532551796E+03  0.98013010997E+02 0.  0.
         -6    2    1    2    0  502  0.18720660118E+03  0.16768214389E+03 -0.27809700969E+03  0.41106855421E+03  0.16874773053E+03 0.  0.
        -24    2    5    5    0    0  0.11419498048E+03  0.26277783401E+02 -0.15547872209E+03  0.21011277704E+03  0.79010952331E+02 0.  0.
          5    1    3    3  501    0 -0.10702066170E+03 -0.86183212452E+02 -0.24888728436E+03  0.28433771902E+03  0.47000000000E+01 0. -1.
        -11    1    4    4    0    0 -0.56610307545E+02 -0.86213365615E+02 -0.35736812131E+02  0.10915397873E+03  0.00000000000E+00 0.  1.
         12    1    4    4    0    0 -0.23575631937E+02  0.47144341734E+01 -0.72277708029E+02  0.76171539231E+02  0.00000000000E+00 0. -1.
         -5    1    5    5    0  502  0.73011620698E+02  0.14140436049E+03 -0.12261828760E+03  0.20095577717E+03  0.47000000000E+01 0.  1.
         13    1    6    6    0    0  0.82733866787E+02  0.11953856471E+02 -0.15434205657E+03  0.17552566144E+03  0.00000000000E+00 0. -1.
        -14    1    6    6    0    0  0.31461113691E+02  0.14323926931E+02 -0.11366655203E+01  0.34587115606E+02  0.00000000000E+00 0.  1.
</event>
<event>
12    1  0.1596842E-001  0.2311344E+03  0.7818608E-02  0.1125878E+00
         21   -1    0    0  501  502  0.00000000000E+00  0.00000000000E+00  0.22534482852E+03  0.22534482852E+03  0.00000000000E+00 0.  1.
         21   -1    0    0  502  503 -0.00000000000E+00 -0.00000000000E+00 -0.25619850113E+03  0.25619850113E+03  0.00000000000E+00 0. -1.
         -6    2    1    2    0  503  0.52510029062E+02  0.14473189432E+03 -0.81550265577E+02  0.24491440340E+03  0.17212784432E+03 0.  0.
        -24    2    3    3    0    0  0.12944456869E+02  0.15933864349E+03 -0.30840582641E+02  0.17879062879E+03  0.73882238283E+02 0.  0.
          6    2    1    2  501    0 -0.52510029062E+02 -0.14473189432E+03  0.50696592964E+02  0.23662892625E+03  0.17239048644E+03 0.  0.
         24    2    5    5    0    0 -0.61988996393E+01 -0.49768558391E+01  0.20551129560E+02  0.86272581350E+02  0.83411113862E+02 0.  0.
          5    1    5    5  501    0 -0.46311129423E+02 -0.13975503848E+03  0.30145463404E+02  0.15035634490E+03  0.47000000000E+01 0. -1.
        -13    1    6    6    0    0 -0.20996481710E+02 -0.39224816091E+02  0.20446803866E+02  0.48964377152E+02  0.00000000000E+00 0.  1.
         14    1    6    6    0    0  0.14797582071E+02  0.34247960252E+02  0.10432569340E+00  0.37308204197E+02  0.00000000000E+00 0. -1.
         -5    1    3    3    0  503  0.39565572194E+02 -0.14606749171E+02 -0.50709682937E+02  0.66123774604E+02  0.47000000000E+01 0.  1.
         11    1    4    4    0    0 -0.91591240348E+01 -0.48841539194E+01 -0.25595169159E+01  0.10690913873E+02  0.00000000000E+00 0. -1.
        -12    1    4    4    0    0  0.22103580904E+02  0.16422279741E+03 -0.28281065725E+02  0.16809971492E+03  0.00000000000E+00 0.  1.
</event>
<event>
12    1  0.1596842E-001  0.2044330E+03  0.7818608E-02  0.1146090E+00
         21   -1    0    0  503  502  0.00000000000E+00  0.00000000000E+00  0.30743578142E+03  0.30743578142E+03  0.00000000000E+00 0. -1.
         21   -1    0    0  501  503 -0.00000000000E+00 -0.00000000000E+00 -0.35346756717E+03  0.35346756717E+03  0.00000000000E+00 0. -1.
          6    2    1    2  501    0  0.70026058312E+02  0.84989606715E+02 -0.28232609036E+03  0.34856975899E+03  0.17223813019E+03 0.  0.
         24    2    3    3    0    0  0.10949618352E+03  0.64553774164E+02 -0.25243718687E+03  0.29480219825E+03  0.83828389083E+02 0.  0.
         -6    2    1    2    0  502 -0.70026058312E+02 -0.84989606715E+02  0.23629430462E+03  0.31233358960E+03  0.17201857663E+03 0.  0.
        -24    2    5    5    0    0 -0.72733187934E+02 -0.10787968563E+03  0.24393972397E+03  0.28759845870E+03  0.79234722919E+02 0.  0.
          5    1    3    3  501    0 -0.39470125207E+02  0.20435832551E+02 -0.29888903498E+02  0.53767560743E+02  0.47000000000E+01 0. -1.
        -13    1    4    4    0    0 -0.62185328459E+01  0.30088859861E+02 -0.64158601552E+02  0.71136037221E+02  0.00000000000E+00 0.  1.
         14    1    4    4    0    0  0.11571471637E+03  0.34464914303E+02 -0.18827858531E+03  0.22366616103E+03  0.00000000000E+00 0. -1.
         -5    1    5    5    0  502  0.27071296218E+01  0.22890078916E+02 -0.76454193563E+01  0.24735130902E+02  0.47000000000E+01 0.  1.
         13    1    6    6    0    0 -0.53059746218E+02 -0.14768501945E+02  0.11322700427E+03  0.12591187321E+03  0.00000000000E+00 0. -1.
        -14    1    6    6    0    0 -0.19673441716E+02 -0.93111183687E+02  0.13071271970E+03  0.16168658549E+03  0.00000000000E+00 0.  1.
</event>
<event>
12    1  0.1596842E-001  0.1952224E+03  0.7818608E-02  0.1154203E+00
         21   -1    0    0  501  502  0.00000000000E+00  0.00000000000E+00  0.33254722136E+03  0.33254722136E+03  0.00000000000E+00 0. -1.
         21   -1    0    0  502  503 -0.00000000000E+00 -0.00000000000E+00 -0.13839844724E+03  0.13839844724E+03  0.00000000000E+00 0. -1.
         -6    2    1    2    0  503 -0.85147311225E+02 -0.34393445319E+02 -0.29110188072E+01  0.19355725650E+03  0.17036127443E+03 0.  0.
        -24    2    3    3    0    0 -0.89826982729E+02 -0.77266802961E+02 -0.25439232679E+02  0.14467336815E+03  0.79020144428E+02 0.  0.
          6    2    1    2  501    0  0.85147311225E+02  0.34393445319E+02  0.19705979293E+03  0.27738841210E+03  0.17227534789E+03 0.  0.
         24    2    5    5    0    0  0.64025307673E+00 -0.29438618456E+02  0.11282278563E+03  0.14198553679E+03  0.81017711159E+02 0.  0.
          5    1    5    5  501    0  0.84507058148E+02  0.63832063775E+02  0.84237007304E+02  0.13540287531E+03  0.47000000000E+01 0. -1.
        -11    1    6    6    0    0  0.24137714927E+02 -0.35370387379E+02  0.10943568247E+03  0.11751536998E+03  0.00000000000E+00 0.  1.
         12    1    6    6    0    0 -0.23497461850E+02  0.59317689234E+01  0.33871031599E+01  0.24470166811E+02  0.00000000000E+00 0. -1.
         -5    1    3    3    0  503  0.46796715036E+01  0.42873357642E+02  0.22528213872E+02  0.48883888359E+02  0.47000000000E+01 0.  1.
         13    1    4    4    0    0  0.13037796303E+02 -0.15746064041E+01 -0.89695262287E+01  0.15903330422E+02  0.00000000000E+00 0. -1.
        -14    1    4    4    0    0 -0.10286477903E+03 -0.75692196556E+02 -0.16469706450E+02  0.12877003772E+03  0.00000000000E+00 0.  1.
</event>
<event>
12    1  0.1596842E-001  0.1751861E+03  0.7818608E-02  0.1172899E+00
         21   -1    0    0  503  502  0.00000000000E+00  0.00000000000E+00  0.26467601214E+02  0.26467601214E+02  0.00000000000E+00 0.  1.
         21   -1    0    0  501  503 -0.00000000000E+00 -0.00000000000E+00 -0.12535482719E+04  0.12535482719E+04  0.00000000000E+00 0.  1.
          6    2    1    2  501    0  0.71850256039E+01  0.27535957527E+02 -0.42756135333E+03  0.46152867125E+03  0.17143555632E+03 0.  0.
         24    2    3    3    0    0  0.25496211565E+01 -0.34674998393E+02 -0.12366849583E+03  0.15126322223E+03  0.79861188685E+02 0.  0.
         -6    2    1    2    0  502 -0.71850256039E+01 -0.27535957527E+02 -0.79951931732E+03  0.81848720183E+03  0.17285921221E+03 0.  0.
        -24    2    5    5    0    0  0.23061074618E+02  0.45118782394E+02 -0.38866047785E+03  0.40013255110E+03  0.80508221486E+02 0.  0.
          5    1    3    3  501    0  0.46354044474E+01  0.62210955920E+02 -0.30389285750E+03  0.31026544902E+03  0.47000000000E+01 0. -1.
        -11    1    4    4    0    0 -0.37021646998E+02 -0.21803796377E+02 -0.80841225265E+02  0.91549503468E+02  0.00000000000E+00 0.  1.
         12    1    4    4    0    0  0.39571268155E+02 -0.12871202015E+02 -0.42827270561E+02  0.59713718762E+02  0.00000000000E+00 0. -1.
         -5    1    5    5    0  502 -0.30246100222E+02 -0.72654739921E+02 -0.41085883947E+03  0.41835465072E+03  0.47000000000E+01 0.  1.
         11    1    6    6    0    0 -0.19915756042E+02  0.47957945577E+02 -0.22270762329E+03  0.22868162881E+03  0.00000000000E+00 0. -1.
        -12    1    6    6    0    0  0.42976830660E+02 -0.28391631835E+01 -0.16595285455E+03  0.17145092229E+03  0.00000000000E+00 0.  1.
</event>
<event>
12    1  0.1596842E-001  0.3604992E+03  0.7818608E-02  0.1058620E+00
         21   -1    0    0  501  502  0.00000000000E+00  0.00000000000E+00  0.32529160100E+03  0.32529160100E+03  0.00000000000E+00 0. -1.
         21   -1    0    0  502  503 -0.00000000000E+00 -0.00000000000E+00 -0.39691464053E+03  0.39691464053E+03  0.00000000000E+00 0. -1.
         -6    2    1    2    0  503  0.87534002300E+02  0.30405999046E+03 -0.34600960831E+02  0.36215594570E+03  0.17275712188E+03 0.  0.
        -24    2    3    3    0    0  0.41302135353E+02  0.29817410929E+03 -0.42305238194E+02  0.31468516513E+03  0.81383991903E+02 0.  0.
          6    2    1    2  501    0 -0.87534002300E+02 -0.30405999046E+03 -0.37022078705E+02  0.36005029583E+03  0.16778230495E+03 0.  0.
         24    2    5    5    0    0 -0.91416676992E+02 -0.22813136976E+03 -0.82873280329E+02  0.27114217868E+03  0.79051690467E+02 0.  0.
          5    1    5    5  501    0  0.38826746912E+01 -0.75928620701E+02  0.45851201624E+02  0.88908117148E+02  0.47000000000E+01 0. -1.
        -11    1    6    6    0    0 -0.15816148377E+02 -0.14438678765E+03 -0.50293425821E+02  0.15371116966E+03  0.00000000000E+00 0.  1.
         12    1    6    6    0    0 -0.75600528614E+02 -0.83744582109E+02 -0.32579854507E+02  0.11743100902E+03  0.00000000000E+00 0. -1.
         -5    1    3    3    0  503  0.46231866947E+02  0.58858811697E+01  0.77042773632E+01  0.47470780574E+02  0.47000000000E+01 0.  1.
         11    1    4    4    0    0  0.59149324474E+02  0.16029656207E+03 -0.58697997848E+01  0.17096223251E+03  0.00000000000E+00 0. -1.
        -12    1    4    4    0    0 -0.17847189121E+02  0.13787754722E+03 -0.36435438409E+02  0.14372293262E+03  0.00000000000E+00 0.  1.
</event>
<event>
12    1  0.1596842E-001  0.1970406E+03  0.7818608E-02  0.1152597E+00
         21   -1    0    0  501  502  0.00000000000E+00  0.00000000000E+00  0.43503403074E+03  0.43503403074E+03  0.00000000000E+00 0. -1.
         21   -1    0    0  502  503 -0.00000000000E+00 -0.00000000000E+00 -0.16499460973E+03  0.16499460973E+03  0.00000000000E+00 0. -1.
         -6    2    1    2    0  503  0.76049805210E+02  0.56176566104E+02  0.33953159377E+03  0.39256423932E+03  0.17287451914E+03 0.  0.
        -24    2    3    3    0    0  0.37600000445E+02 -0.80891557346E+00  0.62714905418E+02  0.10730067424E+03  0.78522996334E+02 0.  0.
          6    2    1    2  501    0 -0.76049805210E+02 -0.56176566104E+02 -0.69492172764E+02  0.20746440115E+03  0.17109335527E+03 0.  0.
         24    2    5    5    0    0 -0.27136172552E+02 -0.83121173143E+02 -0.17150184708E+01  0.11951903202E+03  0.81463835172E+02 0.  0.
          5    1    5    5  501    0 -0.48913632658E+02  0.26944607038E+02 -0.67777154294E+02  0.87945369135E+02  0.47000000000E+01 0. -1.
        -13    1    6    6    0    0 -0.44718829577E+02 -0.66975999012E+02  0.24390178462E+02  0.84145344303E+02  0.00000000000E+00 0.  1.
         14    1    6    6    0    0  0.17582657025E+02 -0.16145174130E+02 -0.26105196932E+02  0.35373687716E+02  0.00000000000E+00 0. -1.
         -5    1    3    3    0  503  0.38449804765E+02  0.56985481678E+02  0.27681668835E+03  0.28526356508E+03  0.47000000000E+01 0.  1.
         13    1    4    4    0    0  0.12343700223E+02  0.34139738601E+02  0.51030964101E+02  0.62626256347E+02  0.00000000000E+00 0. -1.
        -14    1    4    4    0    0  0.25256300222E+02 -0.34948654175E+02  0.11683941317E+02  0.44674417895E+02  0.00000000000E+00 0.  1.
</event>
<event>
12    1  0.1596842E-001  0.2311057E+03  0.7818608E-02  0.1126174E+00
         21   -1    0    0  501  502  0.00000000000E+00  0.00000000000E+00  0.28836410702E+03  0.28836410702E+03  0.00000000000E+00 0.  1.
         21   -1    0    0  502  503 -0.00000000000E+00 -0.00000000000E+00 -0.29394609764E+03  0.29394609764E+03  0.00000000000E+00 0. -1.
         -6    2    1    2    0  503  0.58413500390E+02 -0.14135612422E+03 -0.18102224811E+03  0.29356246451E+03  0.17325176875E+03 0.  0.
        -24    2    3    3    0    0 -0.21451247636E+02 -0.12152651190E+03 -0.13613738344E+03  0.19970974703E+03  0.78241592312E+02 0.  0.
          6    2    1    2  501    0 -0.58413500390E+02  0.14135612422E+03  0.17544025750E+03  0.28874774015E+03  0.17088675376E+03 0.  0.
         24    2    5    5    0    0 -0.43891033846E+01  0.15337068331E+03  0.13496032631E+03  0.22001856199E+03  0.81560083483E+02 0.  0.
          5    1    5    5  501    0 -0.54024397006E+02 -0.12014559086E+02  0.40479931185E+02  0.68729178160E+02  0.47000000000E+01 0. -1.
        -13    1    6    6    0    0 -0.36089283981E+02  0.11574954616E+03  0.75442076781E+02  0.14280021290E+03  0.00000000000E+00 0.  1.
         14    1    6    6    0    0  0.31700180596E+02  0.37621137144E+02  0.59518249530E+02  0.77218349095E+02  0.00000000000E+00 0. -1.
         -5    1    3    3    0  503  0.79864748026E+02 -0.19829612317E+02 -0.44884864674E+02  0.93852717482E+02  0.47000000000E+01 0.  1.
         13    1    4    4    0    0 -0.90244475206E+01 -0.19169132995E+01 -0.52321757330E+02  0.53128913971E+02  0.00000000000E+00 0. -1.
        -14    1    4    4    0    0 -0.12426800115E+02 -0.11960959860E+03 -0.83815626106E+02  0.14658083305E+03  0.00000000000E+00 0.  1.
</event>
<event>
12    1  0.1596842E-001  0.2208724E+03  0.7818608E-02  0.1133412E+00
         21   -1    0    0  503  502  0.00000000000E+00  0.00000000000E+00  0.26005189807E+03  0.26005189807E+03  0.00000000000E+00 0. -1.
         21   -1    0    0  501  503 -0.00000000000E+00 -0.00000000000E+00 -0.31693800629E+03  0.31693800629E+03  0.00000000000E+00 0.  1.
          6    2    1    2  501    0  0.22581504557E+02  0.13446255632E+03 -0.21328142926E+03  0.30635342902E+03  0.17254956391E+03 0.  0.
         24    2    3    3    0    0 -0.48294108655E+02  0.44784793703E+02 -0.72818838281E+02  0.12519801751E+03  0.77678579427E+02 0.  0.
         -6    2    1    2    0  502 -0.22581504557E+02 -0.13446255632E+03  0.15639532103E+03  0.27063647534E+03  0.17376565237E+03 0.  0.
        -24    2    5    5    0    0 -0.22846426002E+02 -0.31581624751E+02  0.15006061690E+03  0.16745326575E+03  0.63269655164E+02 0.  0.
          5    1    3    3  501    0  0.70875613212E+02  0.89677762618E+02 -0.14046259098E+03  0.18115541151E+03  0.47000000000E+01 0. -1.
        -13    1    4    4    0    0 -0.51913318756E+02  0.21047059292E+02 -0.82154437032E+02  0.99435018445E+02  0.00000000000E+00 0.  1.
         14    1    4    4    0    0  0.36192101005E+01  0.23737734412E+02  0.93355987513E+01  0.25762999064E+02  0.00000000000E+00 0. -1.
         -5    1    5    5    0  502  0.26492144487E+00 -0.10288093157E+03  0.63347041343E+01  0.10318320959E+03  0.47000000000E+01 0.  1.
         13    1    6    6    0    0 -0.82311120545E+01  0.80027609555E+01  0.10535520890E+03  0.10597884426E+03  0.00000000000E+00 0. -1.
        -14    1    6    6    0    0 -0.14615313947E+02 -0.39584385706E+02  0.44705407998E+02  0.61474421492E+02  0.00000000000E+00 0.  1.
</event>
<event>
12    1  0.1596842E-001  0.1968697E+03  0.7818608E-02  0.1153186E+00
         21   -1    0    0  501  502  0.00000000000E+00  0.00000000000E+00  0.39969783307E+03  0.39969783307E+03  0.00000000000E+00 0. -1.
         21   -1    0    0  502  503 -0.00000000000E+00 -0.00000000000E+00 -0.10134827522E+03  0.10134827522E+03  0.00000000000E+00 0. -1.
         -6    2    1    2    0  503  0.38780451076E+02  0.77829730838E+02  0.88815271053E+02  0.21597646968E+03  0.17662472277E+03 0.  0.
        -24    2    3    3    0    0 -0.45825553739E+02  0.20370631359E+02  0.48456528337E+02  0.10592810632E+03  0.79735717045E+02 0.  0.
          6    2    1    2  501    0 -0.38780451076E+02 -0.77829730838E+02  0.20953428680E+03  0.28506963861E+03  0.17262297392E+03 0.  0.
         24    2    5    5    0    0 -0.83963227672E+02 -0.38841870831E+02  0.18365171155E+03  0.21985051388E+03  0.77767491722E+02 0.  0.
          5    1    5    5  501    0  0.45182776595E+02 -0.38987860006E+02  0.25882575255E+02  0.65219124730E+02  0.47000000000E+01 0. -1.
        -13    1    6    6    0    0 -0.51881448584E+02 -0.21029529653E+02  0.17271411910E+03  0.18156016293E+03  0.00000000000E+00 0.  1.
         14    1    6    6    0    0 -0.32081779087E+02 -0.17812341179E+02  0.10937592444E+02  0.38290350953E+02  0.00000000000E+00 0. -1.
         -5    1    3    3    0  503  0.84606004815E+02  0.57459099479E+02  0.40358742717E+02  0.11004836336E+03  0.47000000000E+01 0.  1.
         11    1    4    4    0    0 -0.40611462039E+02  0.48164404427E+02  0.20727791409E+02  0.66323012895E+02  0.00000000000E+00 0. -1.
        -12    1    4    4    0    0 -0.52140916994E+01 -0.27793773068E+02  0.27728736927E+02  0.39605093425E+02  0.00000000000E+00 0.  1.
</event>
<event>
12    1  0.1596842E-001  0.1814478E+03  0.7818608E-02  0.1167757E+00
         21   -1    0    0  501  502  0.00000000000E+00  0.00000000000E+00  0.38583141220E+03  0.38583141220E+03  0.00000000000E+00 0. -1.
         21   -1    0    0  502  503 -0.00000000000E+00 -0.00000000000E+00 -0.24156228877E+03  0.24156228877E+03  0.00000000000E+00 0. -1.
         -6    2    1    2    0  503  0.56521055955E+02 -0.15657360886E+02  0.32686331265E+03  0.37384879129E+03  0.17170763197E+03 0.  0.
        -24    2    3    3    0    0  0.44387469125E+02  0.32843171866E+02  0.30237643696E+03  0.31798088738E+03  0.81433492842E+02 0.  0.
          6    2    1    2  501    0 -0.56521055955E+02  0.15657360886E+02 -0.18259418922E+03  0.25354490968E+03  0.16584511018E+03 0.  0.
         24    2    5    5    0    0  0.29372838953E+02  0.11790263190E+02 -0.95118768180E+02  0.13079819928E+03  0.84016753694E+02 0.  0.
          5    1    5    5  501    0 -0.85893894907E+02  0.38670976954E+01 -0.87475421039E+02  0.12274671040E+03  0.47000000000E+01 0. -1.
        -13    1    6    6    0    0  0.31621978981E+02 -0.27226515488E+02 -0.77305240086E+02  0.87848351408E+02  0.00000000000E+00 0.  1.
         14    1    6    6    0    0 -0.22491400288E+01  0.39016778679E+02 -0.17813528094E+02  0.42949847875E+02  0.00000000000E+00 0. -1.
         -5    1    3    3    0  503  0.12133586830E+02 -0.48500532751E+02  0.24486875693E+02  0.55867903914E+02  0.47000000000E+01 0.  1.
         13    1    4    4    0    0  0.64122525794E+02  0.14120428805E+02  0.25531853508E+03  0.26362594557E+03  0.00000000000E+00 0. -1.
        -14    1    4    4    0    0 -0.19735056669E+02  0.18722743061E+02  0.47057901882E+02  0.54354941809E+02  0.00000000000E+00 0.  1.
</event>
<event>
12    1  0.1596842E-001  0.1846448E+03  0.7818608E-02  0.1163574E+00
         21   -1    0    0  503  502  0.00000000000E+00  0.00000000000E+00  0.17591725898E+03  0.17591725898E+03  0.00000000000E+00 0. -1.
         21   -1    0    0  501  503 -0.00000000000E+00 -0.00000000000E+00 -0.25120242953E+03  0.25120242953E+03  0.00000000000E+00 0. -1.
          6    2    1    2  501    0 -0.55605870390E+02 -0.33681043760E+02 -0.14042084965E+03  0.23132296623E+03  0.17194730053E+03 0.  0.
         24    2    3    3    0    0 -0.75456421563E+02 -0.99045065125E+01 -0.27244010828E+02  0.11389019844E+03  0.80230732086E+02 0.  0.
         -6    2    1    2    0  502  0.55605870390E+02  0.33681043760E+02  0.65135679099E+02  0.19579672227E+03  0.17282150975E+03 0.  0.
        -24    2    5    5    0    0  0.48025120148E+02  0.79770144425E+02  0.92208442102E+01  0.12278828622E+03  0.79512584906E+02 0.  0.
          5    1    3    3  501    0  0.19850551172E+02 -0.23776537248E+02 -0.11317683882E+03  0.11743276779E+03  0.47000000000E+01 0. -1.
        -11    1    4    4    0    0 -0.30720243177E+02  0.15079086540E+02 -0.47710225443E+02  0.58714374760E+02  0.00000000000E+00 0.  1.
         12    1    4    4    0    0 -0.44736178386E+02 -0.24983593053E+02  0.20466214615E+02  0.55175823683E+02  0.00000000000E+00 0. -1.
         -5    1    5    5    0  502  0.75807502422E+01 -0.46089100665E+02  0.55914834888E+02  0.73008436053E+02  0.47000000000E+01 0.  1.
         11    1    6    6    0    0 -0.15026160137E+02  0.19635909452E+00 -0.11803260637E+02  0.19108663141E+02  0.00000000000E+00 0. -1.
        -12    1    6    6    0    0  0.63051280285E+02  0.79573785330E+02  0.21024104847E+02  0.10367962308E+03  0.00000000000E+00 0.  1.
</event>
<event>
12    1  0.1596842E-001  0.3103877E+03  0.7818608E-02  0.1080370E+00
         21   -1    0    0  503  502  0.00000000000E+00  0.00000000000E+00  0.23489349031E+04  0.23489349031E+04  0.00000000000E+00 0.  1.
         21   -1    0    0  501  503 -0.00000000000E+00 -0.00000000000E+00 -0.81376736360E+02  0.81376736360E+02  0.00000000000E+00 0.  1.
          6    2    1    2  501    0  0.18739277072E+03 -0.17712649486E+03  0.27393649203E+03  0.41267244245E+03  0.16960983872E+03 0.  0.
         24    2    3    3    0    0  0.14744176487E+03 -0.15331067190E+03  0.13048383100E+03  0.26179490188E+03  0.79166308176E+02 0.  0.
         -6    2    1    2    0  502 -0.18739277072E+03  0.17712649486E+03  0.19936216747E+04  0.20176391970E+04  0.17277355626E+03 0.  0.
        -24    2    5    5    0    0 -0.13769647813E+03  0.48344611462E+02  0.12981773659E+04  0.13086121371E+04  0.76835737514E+02 0.  0.
          5    1    3    3  501    0  0.39951005849E+02 -0.23815822956E+02  0.14345266103E+03  0.15087754057E+03  0.47000000000E+01 0. -1.
        -13    1    4    4    0    0  0.88745032709E+02 -0.11219016384E+03  0.44390640490E+02  0.14977597490E+03  0.00000000000E+00 0.  1.
         14    1    4    4    0    0  0.58696732165E+02 -0.41120508059E+02  0.86093190513E+02  0.11201892698E+03  0.00000000000E+00 0. -1.
         -5    1    5    5    0  502 -0.49696292595E+02  0.12878188340E+03  0.69544430879E+03  0.70902705986E+03  0.47000000000E+01 0.  1.
         13    1    6    6    0    0  0.14404756428E+01 -0.12367879626E+02  0.71353367311E+02  0.72431639793E+02  0.00000000000E+00 0. -1.
        -14    1    6    6    0    0 -0.13913695377E+03  0.60712491088E+02  0.12268239986E+04  0.12361804973E+04  0.00000000000E+00 0.  1.
</event>
<event>
12    1  0.1596842E-001  0.2746503E+03  0.7818608E-02  0.1100556E+00
         21   -1    0    0  503  502  0.00000000000E+00  0.00000000000E+00  0.85305852215E+03  0.85305852215E+03  0.00000000000E+00 0. -1.
         21   -1    0    0  501  503 -0.00000000000E+00 -0.00000000000E+00 -0.84360557456E+02  0.84360557456E+02  0.00000000000E+00 0. -1.
          6    2    1    2  501    0  0.12399117144E+03  0.15031994567E+03  0.35456643713E+03  0.44049079451E+03  0.17419783308E+03 0.  0.
         24    2    3    3    0    0  0.34947706105E+02  0.65408377025E+02  0.26844927058E+03  0.29023444828E+03  0.81678798633E+02 0.  0.
         -6    2    1    2    0  502 -0.12399117144E+03 -0.15031994567E+03  0.41413152756E+03  0.49692828509E+03  0.19355335632E+03 0.  0.
        -24    2    5    5    0    0 -0.70353794727E+02 -0.16315817777E+03  0.21328560735E+03  0.28859450950E+03  0.78903695771E+02 0.  0.
          5    1    3    3  501    0  0.89043465336E+02  0.84911568645E+02  0.86117166551E+02  0.15025634623E+03  0.47000000000E+01 0. -1.
        -13    1    4    4    0    0  0.37947975607E+02 -0.53756006651E+01  0.75117113032E+02  0.84329867813E+02  0.00000000000E+00 0.  1.
         14    1    4    4    0    0 -0.30002695016E+01  0.70783977690E+02  0.19333215755E+03  0.20590458047E+03  0.00000000000E+00 0. -1.
         -5    1    5    5    0  502 -0.53637376714E+02  0.12838232105E+02  0.20084592022E+03  0.20833377559E+03  0.47000000000E+01 0.  1.
         13    1    6    6    0    0 -0.73248720128E+02 -0.11074931277E+03  0.18844079073E+03  0.23052270363E+03  0.00000000000E+00 0. -1.
        -14    1    6    6    0    0  0.28949254007E+01 -0.52408865007E+02  0.24844816618E+02  0.58071805872E+02  0.00000000000E+00 0.  1.
</event>
<event>
12    1  0.1596842E-001  0.1917166E+03  0.7818608E-02  0.1160853E+00
         21   -1    0    0  503  502  0.00000000000E+00  0.00000000000E+00  0.57451100708E+03  0.57451100708E+03  0.00000000000E+00 0.  1.
         21   -1    0    0  501  503 -0.00000000000E+00 -0.00000000000E+00 -0.22425739317E+03  0.22425739317E+03  0.00000000000E+00 0.  1.
          6    2    1    2  501    0  0.27326417701E+02 -0.18706296745E+01 -0.16605553301E+03  0.25363300205E+03  0.18974990731E+03 0.  0.
         24    2    3    3    0    0  0.46642083259E+02 -0.19394930228E+02 -0.19364760595E+03  0.21537586501E+03  0.79597240468E+02 0.  0.
         -6    2    1    2    0  502 -0.27326417701E+02  0.18706296745E+01  0.51630914692E+03  0.54513539821E+03  0.17276352283E+03 0.  0.
        -24    2    5    5    0    0  0.23155952788E+02  0.20263248230E+02  0.13978981920E+03  0.16477287075E+03  0.81621737321E+02 0.  0.
          5    1    3    3  501    0 -0.19315665558E+02  0.17524300554E+02  0.27592072932E+02  0.38257137041E+02  0.47000000000E+01 0. -1.
        -13    1    4    4    0    0  0.18414730906E+02 -0.44244154563E+02 -0.15145495852E+03  0.15885607319E+03  0.00000000000E+00 0.  1.
         14    1    4    4    0    0  0.28227352353E+02  0.24849224335E+02 -0.42192647423E+02  0.56519791821E+02  0.00000000000E+00 0. -1.
         -5    1    5    5    0  502 -0.50482370489E+02 -0.18392618555E+02  0.37651932772E+03  0.38036252746E+03  0.47000000000E+01 0.  1.
         11    1    6    6    0    0  0.37604255105E+02  0.44918489555E+02  0.90794884702E+02  0.10805305083E+03  0.00000000000E+00 0. -1.
        -12    1    6    6    0    0 -0.14448302316E+02 -0.24655241325E+02  0.48994934498E+02  0.56719819914E+02  0.00000000000E+00 0.  1.
</event>
<event>
12    1  0.1596842E-001  0.2132438E+03  0.7818608E-02  0.1139223E+00
         21   -1    0    0  503  502  0.00000000000E+00  0.00000000000E+00  0.12531788301E+03  0.12531788301E+03  0.00000000000E+00 0.  1.
         21   -1    0    0  501  503 -0.00000000000E+00 -0.00000000000E+00 -0.38108791384E+03  0.38108791384E+03  0.00000000000E+00 0. -1.
          6    2    1    2  501    0  0.10068483313E+03  0.74801994942E+02 -0.70202352392E+02  0.22450234318E+03  0.17245334946E+03 0.  0.
         24    2    3    3    0    0  0.13421126732E+03  0.30226302570E+02 -0.64767856343E+02  0.16826500783E+03  0.72055145576E+02 0.  0.
         -6    2    1    2    0  502 -0.10068483313E+03 -0.74801994942E+02 -0.18556767843E+03  0.28190345367E+03  0.17117657505E+03 0.  0.
        -24    2    5    5    0    0 -0.55424310695E+02 -0.10851452966E+03 -0.79962203207E+02  0.16207167039E+03  0.70894393552E+02 0.  0.
          5    1    3    3  501    0 -0.33526434181E+02  0.44575692372E+02 -0.54344960486E+01  0.56237335344E+02  0.47000000000E+01 0. -1.
        -13    1    4    4    0    0  0.78223443589E+02  0.52834193907E+02 -0.32704095523E+02  0.99899534717E+02  0.00000000000E+00 0.  1.
         14    1    4    4    0    0  0.55987823726E+02 -0.22607891337E+02 -0.32063760821E+02  0.68365473115E+02  0.00000000000E+00 0. -1.
         -5    1    5    5    0  502 -0.45260522440E+02  0.33712534717E+02 -0.10560547523E+03  0.11983178329E+03  0.47000000000E+01 0.  1.
         13    1    6    6    0    0 -0.71273505499E+02 -0.75416480687E+02 -0.52884688308E+02  0.11646608263E+03  0.00000000000E+00 0. -1.
        -14    1    6    6    0    0  0.15849194804E+02 -0.33098048972E+02 -0.27077514899E+02  0.45605587758E+02  0.00000000000E+00 0.  1.
</event>
<event>
12    1  0.1596842E-001  0.1896601E+03  0.7818608E-02  0.1159068E+00
         21   -1    0    0  501  502  0.00000000000E+00  0.00000000000E+00  0.76226324947E+02  0.76226324947E+02  0.00000000000E+00 0. -1.
         21   -1    0    0  502  503 -0.00000000000E+00 -0.00000000000E+00 -0.65189835846E+03  0.65189835846E+03  0.00000000000E+00 0. -1.
         -6    2    1    2    0  503 -0.35263600350E+02 -0.69358180353E+02 -0.48159997214E+03  0.51759974096E+03  0.17296496752E+03 0.  0.
        -24    2    3    3    0    0 -0.93439548195E+01 -0.19150225057E+02 -0.44014154521E+03  0.44736045023E+03  0.77154079602E+02 0.  0.
          6    2    1    2  501    0  0.35263600350E+02  0.69358180353E+02 -0.94072061379E+02  0.21052494245E+03  0.17151419757E+03 0.  0.
         24    2    5    5    0    0 -0.17478365121E+02 -0.17780793196E+02 -0.59403609734E+02  0.10282671975E+03  0.80142969692E+02 0.  0.
          5    1    5    5  501    0  0.52741965472E+02  0.87138973549E+02 -0.34668451645E+02  0.10769822270E+03  0.47000000000E+01 0. -1.
        -13    1    6    6    0    0  0.97692918353E+00  0.14330403863E+02 -0.63921418314E+02  0.65515361441E+02  0.00000000000E+00 0.  1.
         14    1    6    6    0    0 -0.18455294305E+02 -0.32111197059E+02  0.45178085802E+01  0.37311358308E+02  0.00000000000E+00 0. -1.
         -5    1    3    3    0  503 -0.25919645531E+02 -0.50207955296E+02 -0.41458426933E+02  0.70239290737E+02  0.47000000000E+01 0.  1.
         13    1    4    4    0    0 -0.36522371544E+02 -0.32125608524E+02 -0.23135348740E+03  0.23641145166E+03  0.00000000000E+00 0. -1.
        -14    1    4    4    0    0  0.27178416724E+02  0.12975383467E+02 -0.20878805781E+03  0.21094899856E+03  0.00000000000E+00 0.  1.
</event>
<event>
12    1  0.1596842E-001  0.2941509E+03  0.7818608E-02  0.1088260E+00
         21   -1    0    0  501  502  0.00000000000E+00  0.00000000000E+00  0.43556512403E+03  0.43556512403E+03  0.00000000000E+00 0.  1.
         21   -1    0    0  502  503 -0.00000000000E+00 -0.00000000000E+00 -0.20456241236E+03  0.20456241236E+03  0.00000000000E+00 0.  1.
         -6    2    1    2    0  503 -0.77276667142E+02  0.22606987328E+03  0.59597935152E+02  0.29968026613E+03  0.17081298881E+03 0.  0.
        -24    2    3    3    0    0 -0.56457358791E+02  0.17639810512E+03  0.10627131297E+03  0.22825742421E+03  0.80648216924E+02 0.  0.
          6    2    1    2  501    0  0.77276667142E+02 -0.22606987328E+03  0.17140477651E+03  0.34044727026E+03  0.17159684008E+03 0.  0.
         24    2    5    5    0    0  0.11811272591E+03 -0.15389990407E+03  0.12553542532E+03  0.24556747509E+03  0.83117057919E+02 0.  0.
          5    1    5    5  501    0 -0.40836058772E+02 -0.72169969212E+02  0.45869351195E+02  0.94879795168E+02  0.47000000000E+01 0. -1.
        -11    1    6    6    0    0  0.20760938205E+02 -0.81685294603E+02  0.24506667576E+02  0.87772892542E+02  0.00000000000E+00 0.  1.
         12    1    6    6    0    0  0.97351787709E+02 -0.72214609462E+02  0.10102875774E+03  0.15779458255E+03  0.00000000000E+00 0. -1.
         -5    1    3    3    0  503 -0.20819308351E+02  0.49671768152E+02 -0.46673377814E+02  0.71422841921E+02  0.47000000000E+01 0.  1.
         13    1    4    4    0    0 -0.37091041987E+01  0.39872359486E+02  0.64729400438E+02  0.76114767200E+02  0.00000000000E+00 0. -1.
        -14    1    4    4    0    0 -0.52748254592E+02  0.13652574564E+03  0.41541912529E+02  0.15214265701E+03  0.00000000000E+00 0.  1.
</event>
<event>
12    1  0.1596842E-001  0.2445688E+03  0.7818608E-02  0.1116931E+00
         21   -1    0    0  501  502  0.00000000000E+00  0.00000000000E+00  0.13655283347E+03  0.13655283347E+03  0.00000000000E+00 0.  1.
         21   -1    0    0  502  503 -0.00000000000E+00 -0.00000000000E+00 -0.43852639366E+03  0.43852639366E+03  0.00000000000E+00 0. -1.
         -6    2    1    2    0  503 -0.14037875824E+03  0.10181295237E+03 -0.17110929373E+03  0.29848334633E+03  0.17245824017E+03 0.  0.
        -24    2    3    3    0    0 -0.78674469805E+02 -0.14409259733E+02 -0.90734284556E+02  0.14421976056E+03  0.78545082445E+02 0.  0.
          6    2    1    2  501    0  0.14037875824E+03 -0.10181295237E+03 -0.13086426646E+03  0.27659588079E+03  0.17119507002E+03 0.  0.
         24    2    5    5    0    0  0.21372761264E+02 -0.76536419328E+01 -0.81400023561E+02  0.11691744022E+03  0.80798210579E+02 0.  0.
          5    1    5    5  501    0  0.11900599698E+03 -0.94159310432E+02 -0.49464242898E+02  0.15967844057E+03  0.47000000000E+01 0. -1.
        -13    1    6    6    0    0 -0.14996652713E+02 -0.20262932528E+01  0.10167241409E+02  0.18231243919E+02  0.00000000000E+00 0.  1.
         14    1    6    6    0    0  0.36369413978E+02 -0.56273486799E+01 -0.91567264970E+02  0.98686196301E+02  0.00000000000E+00 0. -1.
         -5    1    3    3    0  503 -0.61704288440E+02  0.11622221210E+03 -0.80375009172E+02  0.15426358578E+03  0.47000000000E+01 0.  1.
         13    1    4    4    0    0 -0.15157466813E+02  0.27742699822E+02 -0.46051563809E+02  0.55858327247E+02  0.00000000000E+00 0. -1.
        -14    1    4    4    0    0 -0.63517002992E+02 -0.42151959555E+02 -0.44682720747E+02  0.88361433310E+02  0.00000000000E+00 0.  1.
</event>
<event>
12    1  0.1596842E-001  0.2695023E+03  0.7818608E-02  0.1101821E+00
         21   -1    0    0  503  502  0.00000000000E+00  0.00000000000E+00  0.42726862106E+03  0.42726862106E+03  0.00000000000E+00 0. -1.
         21   -1    0    0  501  503 -0.00000000000E+00 -0.00000000000E+00 -0.18398067183E+03  0.18398067183E+03  0.00000000000E+00 0.  1.
          6    2    1    2  501    0  0.10961418429E+03  0.17303715448E+03  0.20960699862E+03  0.34141850786E+03  0.17514102149E+03 0.  0.
         24    2    3    3    0    0  0.82469329560E+02  0.27273367830E+02  0.68561412222E+02  0.13672392542E+03  0.80297805855E+02 0.  0.
         -6    2    1    2    0  502 -0.10961418429E+03 -0.17303715448E+03  0.33680950611E+02  0.26983078503E+03  0.17238654208E+03 0.  0.
        -24    2    5    5    0    0 -0.29307117014E+02 -0.12282950182E+03  0.72733936576E+02  0.16727709591E+03  0.82130430786E+02 0.  0.
          5    1    3    3  501    0  0.27144854729E+02  0.14576378665E+03  0.14104558640E+03  0.20469458244E+03  0.47000000000E+01 0. -1.
        -11    1    4    4    0    0 -0.45442457742E+01 -0.14655257962E+02 -0.40697647688E+01  0.15874184731E+02  0.00000000000E+00 0.  1.
         12    1    4    4    0    0  0.87013575335E+02  0.41928625792E+02  0.72631176991E+02  0.12084974069E+03  0.00000000000E+00 0. -1.
         -5    1    5    5    0  502 -0.80307067276E+02 -0.50207652655E+02 -0.39052985965E+02  0.10255368912E+03  0.47000000000E+01 0.  1.
         11    1    6    6    0    0  0.19490223990E+02 -0.67870021254E+02  0.60050056361E+02  0.92694217107E+02  0.00000000000E+00 0. -1.
        -12    1    6    6    0    0 -0.48797341004E+02 -0.54959480570E+02  0.12683880216E+02  0.74582878806E+02  0.00000000000E+00 0.  1.
</event>
<event>
12    1  0.1596842E-001  0.2043696E+03  0.7818608E-02  0.1146422E+00
         21   -1    0    0  503  502  0.00000000000E+00  0.00000000000E+00  0.19263590945E+03  0.19263590945E+03  0.00000000000E+00 0.  1.
         21   -1    0    0  501  503 -0.00000000000E+00 -0.00000000000E+00 -0.24253784864E+03  0.24253784864E+03  0.00000000000E+00 0.  1.
          6    2    1    2  501    0  0.83097951505E+02 -0.67959479737E+02  0.48208515540E+02  0.20847442578E+03  0.17208650384E+03 0.  0.
         24    2    3    3    0    0  0.43289908015E+02 -0.66879031704E+02  0.99838372280E+02  0.14310180306E+03  0.64525998183E+02 0.  0.
         -6    2    1    2    0  502 -0.83097951505E+02  0.67959479737E+02 -0.98110454731E+02  0.22669933232E+03  0.17390562244E+03 0.  0.
        -24    2    5    5    0    0 -0.37532138200E+02  0.76587793420E+02 -0.12618939684E+03  0.17228234849E+03  0.80517651654E+02 0.  0.
          5    1    3    3  501    0  0.39808043490E+02 -0.10804480330E+01 -0.51629856740E+02  0.65372622721E+02  0.47000000000E+01 0. -1.
        -11    1    4    4    0    0  0.44548065468E+02 -0.11785237411E+02  0.57030640847E+02  0.73320637976E+02  0.00000000000E+00 0.  1.
         12    1    4    4    0    0 -0.12581574538E+01 -0.55093794294E+02  0.42807731433E+02  0.69781165083E+02  0.00000000000E+00 0. -1.
         -5    1    5    5    0  502 -0.45565813304E+02 -0.86283136833E+01  0.28078942108E+02  0.54416983828E+02  0.47000000000E+01 0.  1.
         11    1    6    6    0    0 -0.11526556118E+02  0.52675187415E+01  0.10147730252E+02  0.16235291155E+02  0.00000000000E+00 0. -1.
        -12    1    6    6    0    0 -0.26005582082E+02  0.71320274679E+02 -0.13633712709E+03  0.15604705734E+03  0.00000000000E+00 0.  1.
</event>
<event>
12    1  0.1596842E-001  0.2252151E+03  0.7818608E-02  0.1130184E+00
         21   -1    0    0  501  502  0.00000000000E+00  0.00000000000E+00  0.50249150808E+03  0.50249150808E+03  0.00000000000E+00 0. -1.
         21   -1    0    0  502  503 -0.00000000000E+00 -0.00000000000E+00 -0.11855717562E+03  0.11855717562E+03  0.00000000000E+00 0. -1.
         -6    2    1    2    0  503  0.88169951195E+02 -0.11526438700E+03  0.70916161494E+02  0.23542940310E+03  0.17128363225E+03 0.  0.
        -24    2    3    3    0    0  0.12446480696E+03 -0.75124235955E+02  0.72422928740E+02  0.18108873114E+03  0.80080640227E+02 0.  0.
          6    2    1    2  501    0 -0.88169951195E+02  0.11526438700E+03  0.31301817097E+03  0.38561928061E+03  0.17222669657E+03 0.  0.
         24    2    5    5    0    0 -0.12384152722E+03  0.97350605274E+02  0.21125695573E+03  0.27620813017E+03  0.82750018841E+02 0.  0.
          5    1    5    5  501    0  0.35671576024E+02  0.17913781730E+02  0.10176121524E+03  0.10941115043E+03  0.47000000000E+01 0. -1.
        -11    1    6    6    0    0 -0.66080018919E+02  0.19367741675E+01  0.86360144593E+02  0.10875842298E+03  0.00000000000E+00 0.  1.
         12    1    6    6    0    0 -0.57761508301E+02  0.95413831107E+02  0.12489681114E+03  0.16744970720E+03  0.00000000000E+00 0. -1.
         -5    1    3    3    0  503 -0.36294855767E+02 -0.40140151049E+02 -0.15067672453E+01  0.54340671959E+02  0.47000000000E+01 0.  1.
         13    1    4    4    0    0  0.88524680334E+02 -0.40368422383E+02  0.53626637800E+01  0.97442222454E+02  0.00000000000E+00 0. -1.
        -14    1    4    4    0    0  0.35940126628E+02 -0.34755813572E+02  0.67060264960E+02  0.83646508687E+02  0.00000000000E+00 0.  1.
</event>
<event>
12    1  0.1596842E-001  0.2393683E+03  0.7818608E-02  0.1120993E+00
         21   -1    0    0  503  502  0.00000000000E+00  0.00000000000E+00  0.26168017460E+04  0.26168017460E+04  0.00000000000E+00 0.  1.
         21   -1    0    0  501  503 -0.00000000000E+00 -0.00000000000E+00 -0.26702519175E+02  0.26702519175E+02  0.00000000000E+00 0.  1.
          6    2    1    2  501    0 -0.97010962920E+02 -0.12831880706E+03  0.70018052346E+03  0.73848723118E+03  0.17097889344E+03 0.  0.
         24    2    3    3    0    0 -0.13532109364E+03 -0.10069578761E+03  0.53523431020E+03  0.56684795657E+03  0.79933716428E+02 0.  0.
         -6    2    1    2    0  502  0.97010962920E+02  0.12831880706E+03  0.18899187034E+04  0.19050170340E+04  0.17725786678E+03 0.  0.
        -24    2    5    5    0    0  0.40626181031E+02 -0.54902872237E+01  0.92592371849E+03  0.93013625247E+03  0.78345937047E+02 0.  0.
          5    1    3    3  501    0  0.38310130716E+02 -0.27623019446E+02  0.16494621326E+03  0.17163927461E+03  0.47000000000E+01 0. -1.
        -11    1    4    4    0    0 -0.24544321390E+02 -0.62809666740E+02  0.23857123956E+03  0.24791876551E+03  0.00000000000E+00 0.  1.
         12    1    4    4    0    0 -0.11077677225E+03 -0.37886120874E+02  0.29666307064E+03  0.31892919105E+03  0.00000000000E+00 0. -1.
         -5    1    5    5    0  502  0.56384781889E+02  0.13380909428E+03  0.96399498487E+03  0.97488078153E+03  0.47000000000E+01 0.  1.
         11    1    6    6    0    0 -0.17677879181E+02 -0.20777794140E+02  0.35221861365E+03  0.35327351435E+03  0.00000000000E+00 0. -1.
        -12    1    6    6    0    0  0.58304060212E+02  0.15287506916E+02  0.57370510484E+03  0.57686273811E+03  0.00000000000E+00 0.  1.
</event>
<event>
12    1  0.1596842E-001  0.2622406E+03  0.7818608E-02  0.1105823E+00
         21   -1    0    0  503  502  0.00000000000E+00  0.00000000000E+00  0.13059708401E+03  0.13059708401E+03  0.00000000000E+00 0.  1.
         21   -1    0    0  501  503 -0.00000000000E+00 -0.00000000000E+00 -0.78008630890E+03  0.78008630890E+03  0.00000000000E+00 0. -1.
          6    2    1    2  501    0  0.98150448095E+02 -0.17214579425E+03 -0.58439164823E+03  0.64048383125E+03  0.17157579851E+03 0.  0.
         24    2    3    3    0    0  0.93907761302E+01 -0.14468501427E+03 -0.42796019900E+03  0.45848036394E+03  0.77668347224E+02 0.  0.
         -6    2    1    2    0  502 -0.98150448095E+02  0.17214579425E+03 -0.65097576661E+02  0.27019956166E+03  0.17176269587E+03 0.  0.
        -24    2    5    5    0    0  0.65570084069E+01  0.34977716206E+02 -0.42279560995E+02  0.96068906915E+02  0.78582686437E+02 0.  0.
          5    1    3    3  501    0  0.88759671965E+02 -0.27460779976E+02 -0.15643144923E+03  0.18200346731E+03  0.47000000000E+01 0. -1.
        -11    1    4    4    0    0 -0.21111548234E+02 -0.24947472398E+02 -0.16138746462E+03  0.16466325511E+03  0.00000000000E+00 0.  1.
         12    1    4    4    0    0  0.30502324364E+02 -0.11973754188E+03 -0.26657273438E+03  0.29381710883E+03  0.00000000000E+00 0. -1.
         -5    1    5    5    0  502 -0.10470745650E+03  0.13716807804E+03 -0.22818015667E+02  0.17413065474E+03  0.47000000000E+01 0.  1.
         13    1    6    6    0    0  0.63848367588E+01  0.12589002489E+02  0.23039178600E+02  0.27019490645E+02  0.00000000000E+00 0. -1.
        -14    1    6    6    0    0  0.17217164814E+00  0.22388713716E+02 -0.65318739595E+02  0.69049416270E+02  0.00000000000E+00 0.  1.
</event>
<event>
12    1  0.1596842E-001  0.1896352E+03  0.7818608E-02  0.1159229E+00
         21   -1    0    0  501  502  0.00000000000E+00  0.00000000000E+00  0.30439180562E+03  0.30439180562E+03  0.00000000000E+00 0. -1.
         21   -1    0    0  502  503 -0.00000000000E+00 -0.00000000000E+00 -0.34186203174E+03  0.34186203174E+03  0.00000000000E+00 0. -1.
         -6    2    1    2    0  503 -0.61574832309E+02  0.51027212597E+02 -0.28086163027E+03  0.33888754786E+03  0.17194847583E+03 0.  0.
        -24    2    3    3    0    0 -0.10982706906E+03  0.43451658031E+02 -0.19397657135E+03  0.23910392776E+03  0.74791352129E+02 0.  0.
          6    2    1    2  501    0  0.61574832309E+02 -0.51027212597E+02  0.24339140415E+03  0.30736628949E+03  0.16982174155E+03 0.  0.
         24    2    5    5    0    0 -0.25895638770E+02 -0.27097044141E+02  0.15677870287E+03  0.18187690231E+03  0.84230707054E+02 0.  0.
          5    1    5    5  501    0  0.87470471079E+02 -0.23930168456E+02  0.86612701282E+02  0.12548938719E+03  0.47000000000E+01 0. -1.
        -13    1    6    6    0    0 -0.41927834435E+02 -0.29312202783E+02  0.42644945355E+02  0.66601350562E+02  0.00000000000E+00 0.  1.
         14    1    6    6    0    0  0.16032195665E+02  0.22151586422E+01  0.11413375751E+03  0.11527555174E+03  0.00000000000E+00 0. -1.
         -5    1    3    3    0  503  0.48252236747E+02  0.75755545664E+01 -0.86885058919E+02  0.99783620105E+02  0.47000000000E+01 0.  1.
         11    1    4    4    0    0 -0.66721509504E+02  0.47665703108E+02 -0.70115050293E+02  0.10788836527E+03  0.00000000000E+00 0. -1.
        -12    1    4    4    0    0 -0.43105559551E+02 -0.42140450766E+01 -0.12386152106E+03  0.13121556249E+03  0.00000000000E+00 0.  1.
</event>
<event>
12    1  0.1596842E-001  0.2020768E+03  0.7818608E-02  0.1148058E+00
         21   -1    0    0  501  502  0.00000000000E+00  0.00000000000E+00  0.14475143747E+04  0.14475143747E+04  0.00000000000E+00 0.  1.
         21   -1    0    0  502  503 -0.00000000000E+00 -0.00000000000E+00 -0.47304907040E+02  0.47304907040E+02  0.00000000000E+00 0.  1.
         -6    2    1    2    0  503 -0.10305376192E+03  0.24386399034E+02  0.22446265204E+03  0.30183327733E+03  0.17177040152E+03 0.  0.
        -24    2    3    3    0    0  0.13075049719E+02 -0.16708746271E+02  0.13242081014E+03  0.14798756722E+03  0.62569241360E+02 0.  0.
          6    2    1    2  501    0  0.10305376192E+03 -0.24386399034E+02  0.11757468156E+04  0.11929860044E+04  0.17210536883E+03 0.  0.
         24    2    5    5    0    0 -0.44718336105E+01  0.57285626694E+01  0.68546054934E+03  0.69012282470E+03  0.79752960683E+02 0.  0.
          5    1    5    5  501    0  0.10752559553E+03 -0.30114961704E+02  0.49028626629E+03  0.50286317973E+03  0.47000000000E+01 0. -1.
        -13    1    6    6    0    0 -0.11468127068E+02 -0.20751264566E+02  0.67270959283E+02  0.71326817414E+02  0.00000000000E+00 0.  1.
         14    1    6    6    0    0  0.69962934578E+01  0.26479827235E+02  0.61818959006E+03  0.61879600728E+03  0.00000000000E+00 0. -1.
         -5    1    3    3    0  503 -0.11612881164E+03  0.41095145305E+02  0.92041841900E+02  0.15384571012E+03  0.47000000000E+01 0.  1.
         11    1    4    4    0    0  0.27743373197E+02 -0.32506355361E+02  0.70726111747E+02  0.82634985195E+02  0.00000000000E+00 0. -1.
        -12    1    4    4    0    0 -0.14668323478E+02  0.15797609091E+02  0.61694698397E+02  0.65352582022E+02  0.00000000000E+00 0.  1.
</event>
<event>
12    1  0.1596842E-001  0.1880128E+03  0.7818608E-02  0.1160389E+00
         21   -1    0    0  503  502  0.00000000000E+00  0.00000000000E+00  0.42765490291E+02  0.42765490291E+02  0.00000000000E+00 0.  1.
         21   -1    0    0  501  503 -0.00000000000E+00 -0.00000000000E+00 -0.15087936424E+04  0.15087936424E+04  0.00000000000E+00 0. -1.
          6    2    1    2  501    0  0.42362047145E+02  0.63238334561E+02 -0.12561437338E+04  0.12701361662E+04  0.17191617380E+03 0.  0.
         24    2    3    3    0    0  0.13570951898E+02  0.23590149438E+02 -0.11518531115E+04  0.11548125796E+04  0.78011777889E+02 0.  0.
         -6    2    1    2    0  502 -0.42362047145E+02 -0.63238334561E+02 -0.20988441834E+03  0.28142296649E+03  0.17132946918E+03 0.  0.
        -24    2    5    5    0    0 -0.26939983930E+02 -0.10780327510E+03 -0.16800113020E+03  0.21817603941E+03  0.83839701622E+02 0.  0.
          5    1    3    3  501    0  0.28791095247E+02  0.39648185123E+02 -0.10429062227E+03  0.11532358667E+03  0.47000000000E+01 0. -1.
        -11    1    4    4    0    0 -0.24111082628E+02 -0.12075564694E+02 -0.24571266769E+03  0.24718794192E+03  0.00000000000E+00 0.  1.
         12    1    4    4    0    0  0.37682034526E+02  0.35665714132E+02 -0.90614044384E+03  0.90762463764E+03  0.00000000000E+00 0. -1.
         -5    1    5    5    0  502 -0.15422063216E+02  0.44564940542E+02 -0.41883288142E+02  0.63246927078E+02  0.47000000000E+01 0.  1.
         13    1    6    6    0    0  0.23934911440E+02 -0.18086212193E+02 -0.68878448285E+02  0.75128101901E+02  0.00000000000E+00 0. -1.
        -14    1    6    6    0    0 -0.50874895370E+02 -0.89717062909E+02 -0.99122681914E+02  0.14304793751E+03  0.00000000000E+00 0.  1.
</event>
<event>
12    1  0.1596842E-001  0.2187870E+03  0.7818608E-02  0.1134946E+00
         21   -1    0    0  503  502  0.00000000000E+00  0.00000000000E+00  0.24806071760E+03  0.24806071760E+03  0.00000000000E+00 0.  1.
         21   -1    0    0  501  503 -0.00000000000E+00 -0.00000000000E+00 -0.22155529722E+03  0.22155529722E+03  0.00000000000E+00 0.  1.
          6    2    1    2  501    0 -0.44980531535E+02 -0.12606768516E+03 -0.72180144343E+02  0.22960226861E+03  0.17202011235E+03 0.  0.
         24    2    3    3    0    0 -0.92233386854E+02 -0.74517394052E+02 -0.70133731591E+02  0.15948420635E+03  0.80353171080E+02 0.  0.
         -6    2    1    2    0  502  0.44980531535E+02  0.12606768516E+03  0.98685564718E+02  0.24001374621E+03  0.17306486712E+03 0.  0.
        -24    2    5    5    0    0  0.61082739785E+02  0.14888621629E+03  0.55654373528E+02  0.18849928330E+03  0.80847782965E+02 0.  0.
          5    1    3    3  501    0  0.47252855319E+02 -0.51550291105E+02 -0.20464127517E+01  0.70118062251E+02  0.47000000000E+01 0. -1.
        -13    1    4    4    0    0 -0.25069218059E+02 -0.71187369103E+02 -0.30318863622E+02  0.81334744760E+02  0.00000000000E+00 0.  1.
         14    1    4    4    0    0 -0.67164168795E+02 -0.33300249498E+01 -0.39814867969E+02  0.78149461594E+02  0.00000000000E+00 0. -1.
         -5    1    5    5    0  502 -0.16102208250E+02 -0.22818531137E+02  0.43031191190E+02  0.51514462912E+02  0.47000000000E+01 0.  1.
         11    1    6    6    0    0  0.54029029624E+02  0.46630636991E+02 -0.10184842634E+01  0.71376394266E+02  0.00000000000E+00 0. -1.
        -12    1    6    6    0    0  0.70537101612E+01  0.10225557930E+03  0.56672857791E+02  0.11712288904E+03  0.00000000000E+00 0.  1.
</event>
<event>
12    1  0.1596842E-001  0.2632343E+03  0.7818608E-02  0.1105312E+00
         21   -1    0    0  501  502  0.00000000000E+00  0.00000000000E+00  0.10297258262E+04  0.10297258262E+04  0.00000000000E+00 0.  1.
         21   -1    0    0  502  503 -0.00000000000E+00 -0.00000000000E+00 -0.68985884543E+02  0.68985884543E+02  0.00000000000E+00 0.  1.
         -6    2    1    2    0  503  0.68050786720E+02  0.18771061274E+03  0.38958879299E+03  0.46981906785E+03  0.17054132985E+03 0.  0.
        -24    2    3    3    0    0 -0.26674400733E+02  0.10863758244E+03  0.21801018130E+03  0.25842674242E+03  0.82111473490E+02 0.  0.
          6    2    1    2  501    0 -0.68050786720E+02 -0.18771061274E+03  0.57115114866E+03  0.62889264288E+03  0.17154048487E+03 0.  0.
         24    2    5    5    0    0 -0.78319214497E+02 -0.11257473908E+03  0.50050351183E+03  0.52514285392E+03  0.80400748961E+02 0.  0.
          5    1    5    5  501    0  0.10268427777E+02 -0.75135873663E+02  0.70647636829E+02  0.10374978896E+03  0.47000000000E+01 0. -1.
        -11    1    6    6    0    0 -0.29249780018E+02 -0.56425713113E+02  0.10552214260E+03  0.12318414390E+03  0.00000000000E+00 0.  1.
         12    1    6    6    0    0 -0.49069434478E+02 -0.56149025963E+02  0.39498136923E+03  0.40195871002E+03  0.00000000000E+00 0. -1.
         -5    1    3    3    0  503  0.94725187453E+02  0.79073030302E+02  0.17157861170E+03  0.21139232543E+03  0.47000000000E+01 0.  1.
         13    1    4    4    0    0 -0.17956987420E+02  0.88576154178E+02  0.21859884684E+03  0.23654522681E+03  0.00000000000E+00 0. -1.
        -14    1    4    4    0    0 -0.87174133130E+01  0.20061428259E+02 -0.58866553935E+00  0.21881515619E+02  0.00000000000E+00 0.  1.
</event>
<event>
12    1  0.1596842E-001  0.2270049E+03  0.7818608E-02  0.1129022E+00
         21   -1    0    0  501  502  0.00000000000E+00  0.00000000000E+00  0.15855245935E+03  0.15855245935E+03  0.00000000000E+00 0. -1.
         21   -1    0    0  502  503 -0.00000000000E+00 -0.00000000000E+00 -0.34044315717E+03  0.34044315717E+03  0.00000000000E+00 0. -1.
         -6    2    1    2    0  503 -0.14764888401E+03 -0.19404829168E+02 -0.14774449804E+03  0.27084985371E+03  0.17133145132E+03 0.  0.
        -24    2    3    3    0    0 -0.16860207160E+03  0.14203671174E+02 -0.10977647323E+03  0.21578418135E+03  0.76704211240E+02 0.  0.
          6    2    1    2  501    0  0.14764888401E+03  0.19404829168E+02 -0.34146199781E+02  0.22814576280E+03  0.16943372091E+03 0.  0.
         24    2    5    5    0    0  0.11784670390E+02 -0.21293903697E+02 -0.15528324954E+02  0.85022785394E+02  0.79971472223E+02 0.  0.
          5    1    5    5  501    0  0.13586421362E+03  0.40698732865E+02 -0.18617874827E+02  0.14312297741E+03  0.47000000000E+01 0. -1.
        -11    1    6    6    0    0  0.29893428873E+02 -0.20884538441E+02 -0.40290720450E+02  0.54342646145E+02  0.00000000000E+00 0.  1.
         12    1    6    6    0    0 -0.18108758482E+02 -0.40936525592E+00  0.24762395496E+02  0.30680139249E+02  0.00000000000E+00 0. -1.
         -5    1    3    3    0  503  0.20953187590E+02 -0.33608500342E+02 -0.37968024811E+02  0.55065672369E+02  0.47000000000E+01 0.  1.
         13    1    4    4    0    0 -0.58857112125E+02  0.25160317206E+02 -0.78211664409E+02  0.10106565024E+03  0.00000000000E+00 0. -1.
        -14    1    4    4    0    0 -0.10974495947E+03 -0.10956646032E+02 -0.31564808820E+02  0.11471853110E+03  0.00000000000E+00 0.  1.
</event>
<event>
12    1  0.1596842E-001  0.1755211E+03  0.7818608E-02  0.1172364E+00
         21   -1    0    0  501  502  0.00000000000E+00  0.00000000000E+00  0.41305678561E+02  0.41305678561E+02  0.00000000000E+00 0. -1.
         21   -1    0    0  502  503 -0.00000000000E+00 -0.00000000000E+00 -0.74818496075E+03  0.74818496075E+03  0.00000000000E+00 0. -1.
         -6    2    1    2    0  503 -0.48947695046E+00  0.33669937034E+02 -0.38493529395E+03  0.42280878720E+03  0.17163387123E+03 0.  0.
        -24    2    3    3    0    0 -0.84563972581E+01  0.83901622113E+02 -0.27902906139E+03  0.30522939231E+03  0.90536025895E+02 0.  0.
          6    2    1    2  501    0  0.48947695046E+00 -0.33669937034E+02 -0.32194398823E+03  0.36668185211E+03  0.17226068867E+03 0.  0.
         24    2    5    5    0    0  0.13097291501E+02  0.23474472667E+02 -0.28711736669E+03  0.29842187763E+03  0.76789614418E+02 0.  0.
          5    1    5    5  501    0 -0.12607814551E+02 -0.57144409701E+02 -0.34826621541E+02  0.68259974479E+02  0.47000000000E+01 0. -1.
        -13    1    6    6    0    0  0.22662003423E+02  0.25522492271E+02 -0.28660154807E+03  0.28862676828E+03  0.00000000000E+00 0.  1.
         14    1    6    6    0    0 -0.95647119213E+01 -0.20480196038E+01 -0.51581862282E+00  0.97951093555E+01  0.00000000000E+00 0. -1.
         -5    1    3    3    0  503  0.79669203076E+01 -0.50231685079E+02 -0.10590623257E+03  0.11757939488E+03  0.47000000000E+01 0.  1.
         13    1    4    4    0    0 -0.37411985689E+02  0.78620461308E+02 -0.15524308651E+03  0.17799227376E+03  0.00000000000E+00 0. -1.
        -14    1    4    4    0    0  0.28955588431E+02  0.52811608047E+01 -0.12378597488E+03  0.12723711855E+03  0.00000000000E+00 0.  1.
</event>
<event>
12    1  0.1596842E-001  0.1970977E+03  0.7818608E-02  0.1154029E+00
         21   -1    0    0  501  502  0.00000000000E+00  0.00000000000E+00  0.77600969941E+03  0.77600969941E+03  0.00000000000E+00 0.  1.
         21   -1    0    0  502  503 -0.00000000000E+00 -0.00000000000E+00 -0.50888061301E+02  0.50888061301E+02  0.00000000000E+00 0.  1.
         -6    2    1    2    0  503  0.66855746683E+01  0.78798592705E+02  0.25648063064E+03  0.31849643848E+03  0.17147522361E+03 0.  0.
        -24    2    3    3    0    0 -0.45464511808E+02  0.35085578291E+02  0.22013685243E+03  0.24120853928E+03  0.80145530045E+02 0.  0.
          6    2    1    2  501    0 -0.66855746683E+01 -0.78798592705E+02  0.46864100747E+03  0.50840132223E+03  0.18053696419E+03 0.  0.
         24    2    5    5    0    0 -0.62062273071E+02 -0.96859864381E+02  0.31061528044E+03  0.33991687587E+03  0.76341803710E+02 0.  0.
          5    1    5    5  501    0  0.55376698402E+02  0.18061271675E+02  0.15802572703E+03  0.16848444636E+03  0.47000000000E+01 0. -1.
        -13    1    6    6    0    0 -0.47828455283E+02 -0.67020444260E+02  0.28879951794E+03  0.30030728038E+03  0.00000000000E+00 0.  1.
         14    1    6    6    0    0 -0.14233817788E+02 -0.29839420121E+02  0.21815762496E+02  0.39609595495E+02  0.00000000000E+00 0. -1.
         -5    1    3    3    0  503  0.52150086476E+02  0.43713014414E+02  0.36343778212E+02  0.77287899204E+02  0.47000000000E+01 0.  1.
         13    1    4    4    0    0 -0.17215620162E+02 -0.78488728742E+01  0.43877770577E+01  0.19422537694E+02  0.00000000000E+00 0. -1.
        -14    1    4    4    0    0 -0.28248891646E+02  0.42934451166E+02  0.21574907537E+03  0.22178600158E+03  0.00000000000E+00 0.  1.
</event>
<event>
12    1  0.1596842E-001  0.1941893E+03  0.7818608E-02  0.1154941E+00
         21   -1    0    0  501  502  0.00000000000E+00  0.00000000000E+00  0.93637115319E+03  0.93637115319E+03  0.00000000000E+00 0. -1.
         21   -1    0    0  502  503 -0.00000000000E+00 -0.00000000000E+00 -0.52076572403E+02  0.52076572403E+02  0.00000000000E+00 0. -1.
         -6    2    1    2    0  503 -0.76904737730E+02  0.46746324617E+02  0.20574549651E+03  0.28291465516E+03  0.17207537655E+03 0.  0.
        -24    2    3    3    0    0 -0.70633602929E+02 -0.30576997147E+02  0.13888883939E+03  0.18039575045E+03  0.85606415977E+02 0.  0.
          6    2    1    2  501    0  0.76904737730E+02 -0.46746324617E+02  0.67854908427E+03  0.70553307044E+03  0.17102191719E+03 0.  0.
         24    2    5    5    0    0  0.77741776036E+02  0.28091380119E+02  0.35164854168E+03  0.37014160150E+03  0.80716782157E+02 0.  0.
          5    1    5    5  501    0 -0.83703830591E+00 -0.74837704736E+02  0.32690054260E+03  0.33539146893E+03  0.47000000000E+01 0. -1.
        -11    1    6    6    0    0 -0.47136607263E+00 -0.90136744925E+01  0.11361001613E+01  0.90972104190E+01  0.00000000000E+00 0.  1.
         12    1    6    6    0    0  0.78213142109E+02  0.37105054611E+02  0.35051244152E+03  0.36104439108E+03  0.00000000000E+00 0. -1.
         -5    1    3    3    0  503 -0.62711348019E+01  0.77323321764E+02  0.66856657129E+02  0.10251890471E+03  0.47000000000E+01 0.  1.
         11    1    4    4    0    0 -0.29403633026E+02  0.29659251353E+02  0.57524919318E+02  0.71086997183E+02  0.00000000000E+00 0. -1.
        -12    1    4    4    0    0 -0.41229969902E+02 -0.60236248500E+02  0.81363920067E+02  0.10930875326E+03  0.00000000000E+00 0.  1.
</event>
<event>
12    1  0.1596842E-001  0.1925526E+03  0.7818608E-02  0.1156194E+00
         21   -1    0    0  501  502  0.00000000000E+00  0.00000000000E+00  0.16920070979E+03  0.16920070979E+03  0.00000000000E+00 0.  1.
         21   -1    0    0  502  503 -0.00000000000E+00 -0.00000000000E+00 -0.25295915749E+03  0.25295915749E+03  0.00000000000E+00 0.  1.
         -6    2    1    2    0  503 -0.51105186795E+02  0.68682344377E+02 -0.11915554702E+03  0.22638079183E+03  0.17239841640E+03 0.  0.
        -24    2    3    3    0    0 -0.23651507897E+02 -0.31072630122E+02 -0.58261448085E+02  0.10623529376E+03  0.79791222189E+02 0.  0.
          6    2    1    2  501    0  0.51105186795E+02 -0.68682344377E+02  0.35397099326E+02  0.19577907545E+03  0.17247459870E+03 0.  0.
         24    2    5    5    0    0  0.60633996051E+02 -0.10878692612E+03  0.42449212008E+02  0.15369584867E+03  0.79431741292E+02 0.  0.
          5    1    5    5  501    0 -0.95288092568E+01  0.40104581748E+02 -0.70521126826E+01  0.42083226782E+02  0.47000000000E+01 0. -1.
        -13    1    6    6    0    0  0.32951329902E+02 -0.92792128920E+02 -0.25419511257E+01  0.98501933216E+02  0.00000000000E+00 0.  1.
         14    1    6    6    0    0  0.27682666149E+02 -0.15994797205E+02  0.44991163134E+02  0.55193915452E+02  0.00000000000E+00 0. -1.
         -5    1    3    3    0  503 -0.27453678898E+02  0.99754974499E+02 -0.60894098937E+02  0.12014549808E+03  0.47000000000E+01 0.  1.
         13    1    4    4    0    0 -0.64841382059E+01 -0.23711791643E+02  0.16217382387E+02  0.29449899875E+02  0.00000000000E+00 0. -1.
        -14    1    4    4    0    0 -0.17167369691E+02 -0.73608384795E+01 -0.74478830472E+02  0.76785393883E+02  0.00000000000E+00 0.  1.
</event>
<event>
12    1  0.1596842E-001  0.1914582E+03  0.7818608E-02  0.1157418E+00
         21   -1    0    0  501  502  0.00000000000E+00  0.00000000000E+00  0.15337789941E+04  0.15337789941E+04  0.00000000000E+00 0. -1.
         21   -1    0    0  502  503 -0.00000000000E+00 -0.00000000000E+00 -0.29649943512E+02  0.29649943512E+02  0.00000000000E+00 0. -1.
         -6    2    1    2    0  503  0.18637350302E+02 -0.78597175688E+02  0.40527493788E+03  0.44822316086E+03  0.17358386968E+03 0.  0.
        -24    2    3    3    0    0 -0.22580311830E+02 -0.10434055936E+03  0.22210137577E+03  0.25865454181E+03  0.78589618080E+02 0.  0.
          6    2    1    2  501    0 -0.18637350302E+02  0.78597175688E+02  0.10988541127E+04  0.11152057768E+04  0.17227506094E+03 0.  0.
         24    2    5    5    0    0 -0.20877778817E+02 -0.24272831151E+02  0.41252776967E+03  0.42119338711E+03  0.78737898193E+02 0.  0.
          5    1    5    5  501    0  0.22404285155E+01  0.10287000684E+03  0.68632634308E+03  0.69401238968E+03  0.47000000000E+01 0. -1.
        -13    1    6    6    0    0  0.16710546255E+02 -0.35968222129E+02  0.12938390744E+03  0.13532609084E+03  0.00000000000E+00 0.  1.
         14    1    6    6    0    0 -0.37588325072E+02  0.11695390978E+02  0.28314386224E+03  0.28586729626E+03  0.00000000000E+00 0. -1.
         -5    1    3    3    0  503  0.41217662132E+02  0.25743383674E+02  0.18317356211E+03  0.18956861906E+03  0.47000000000E+01 0.  1.
         11    1    4    4    0    0 -0.42858562780E+02 -0.25357113994E+02  0.10170171247E+03  0.11323903017E+03  0.00000000000E+00 0. -1.
        -12    1    4    4    0    0  0.20278250951E+02 -0.78983445369E+02  0.12039966329E+03  0.14541551164E+03  0.00000000000E+00 0.  1.
</event>
<event>
12    1  0.1596842E-001  0.2090602E+03  0.7818608E-02  0.1142344E+00
         21   -1    0    0  501  502  0.00000000000E+00  0.00000000000E+00  0.18744253306E+03  0.18744253306E+03  0.00000000000E+00 0. -1.
         21   -1    0    0  502  503 -0.00000000000E+00 -0.00000000000E+00 -0.28088345691E+03  0.28088345691E+03  0.00000000000E+00 0. -1.
         -6    2    1    2    0  503 -0.27467220617E+02  0.11549266050E+03  0.49979730372E+02  0.21479957338E+03  0.17189496920E+03 0.  0.
        -24    2    3    3    0    0 -0.56901960553E+02  0.42496936126E+02 -0.29869221645E+02  0.10258226263E+03  0.67728336097E+02 0.  0.
          6    2    1    2  501    0  0.27467220617E+02 -0.11549266050E+03 -0.14342065422E+03  0.25352641659E+03  0.17208473789E+03 0.  0.
         24    2    5    5    0    0  0.47434794848E+02 -0.95763180059E+01 -0.27189153898E+02  0.94942598706E+02  0.77026497587E+02 0.  0.
          5    1    5    5  501    0 -0.19967574231E+02 -0.10591634250E+03 -0.11623150032E+03  0.15858381789E+03  0.47000000000E+01 0. -1.
        -13    1    6    6    0    0  0.80921857629E+01 -0.30596075947E+02 -0.37591637308E+02  0.49139948405E+02  0.00000000000E+00 0.  1.
         14    1    6    6    0    0  0.39342609085E+02  0.21019757941E+02  0.10402483410E+02  0.45802650301E+02  0.00000000000E+00 0. -1.
         -5    1    3    3    0  503  0.29434739936E+02  0.72995724377E+02  0.79848952017E+02  0.11221731074E+03  0.47000000000E+01 0.  1.
         13    1    4    4    0    0 -0.58241927551E+02  0.31340141846E+01 -0.22485853366E+02  0.62510461295E+02  0.00000000000E+00 0. -1.
        -14    1    4    4    0    0  0.13399669982E+01  0.39362921942E+02 -0.73833682788E+01  0.40071801338E+02  0.00000000000E+00 0.  1.
</event>
<event>
12    1  0.1596842E-001  0.2171541E+03  0.7818608E-02  0.1136526E+00
         21   -1    0    0  503  502  0.00000000000E+00  0.00000000000E+00  0.51805564282E+03  0.51805564282E+03  0.00000000000E+00 0.  1.
         21   -1    0    0  501  503 -0.00000000000E+00 -0.00000000000E+00 -0.11648975126E+03  0.11648975126E+03  0.00000000000E+00 0.  1.
          6    2    1    2  501    0 -0.11563084810E+03 -0.66686790270E+02  0.48322971220E+02  0.21989318674E+03  0.16792939885E+03 0.  0.
         24    2    3    3    0    0 -0.54722469735E+02 -0.98879467305E+02  0.70821499574E+02  0.14726762108E+03  0.62452939626E+02 0.  0.
         -6    2    1    2    0  502  0.11563084810E+03  0.66686790270E+02  0.35324292034E+03  0.41465220734E+03  0.17128418274E+03 0.  0.
        -24    2    5    5    0    0  0.43499994021E+02 -0.21799031727E+02  0.98648833296E+02  0.13559515231E+03  0.79290641038E+02 0.  0.
          5    1    3    3  501    0 -0.60908378362E+02  0.32192677035E+02 -0.22498528353E+02  0.72625565660E+02  0.47000000000E+01 0. -1.
        -13    1    4    4    0    0 -0.48270500085E+02 -0.25131337244E+02  0.22657890828E+02  0.58949175625E+02  0.00000000000E+00 0.  1.
         14    1    4    4    0    0 -0.64519696497E+01 -0.73748130061E+02  0.48163608746E+02  0.88318445453E+02  0.00000000000E+00 0. -1.
         -5    1    5    5    0  502  0.72130854076E+02  0.88485821997E+02  0.25459408704E+03  0.27905705503E+03  0.47000000000E+01 0.  1.
         13    1    6    6    0    0  0.14176900064E+02  0.23098015190E+02  0.48247466791E+01  0.27527821956E+02  0.00000000000E+00 0. -1.
        -14    1    6    6    0    0  0.29323093958E+02 -0.44897046917E+02  0.93824086617E+02  0.10806733036E+03  0.00000000000E+00 0.  1.
</event>
<event>
12    1  0.1596842E-001  0.2295268E+03  0.7818608E-02  0.1127995E+00
         21   -1    0    0  503  502  0.00000000000E+00  0.00000000000E+00  0.22513899144E+03  0.22513899144E+03  0.00000000000E+00 0.  1.
         21   -1    0    0  501  503 -0.00000000000E+00 -0.00000000000E+00 -0.23090222803E+03  0.23090222803E+03  0.00000000000E+00 0. -1.
          6    2    1    2  501    0 -0.12603891572E+03 -0.67750486441E+02  0.21762145812E+02  0.22486984957E+03  0.17209567562E+03 0.  0.
         24    2    3    3    0    0 -0.86946122151E+02 -0.27774554385E+02  0.78875703460E+02  0.14480506256E+03  0.80100408974E+02 0.  0.
         -6    2    1    2    0  502  0.12603891572E+03  0.67750486441E+02 -0.27525382408E+02  0.23117136989E+03  0.17946202633E+03 0.  0.
        -24    2    5    5    0    0  0.90095097002E+02  0.79099781833E+02 -0.81292990407E+02  0.16533968846E+03  0.79716750449E+02 0.  0.
          5    1    3    3  501    0 -0.39092793568E+02 -0.39975932056E+02 -0.57113557649E+02  0.80064787016E+02  0.47000000000E+01 0. -1.
        -11    1    4    4    0    0 -0.65432709452E+01  0.68013618195E+01  0.52576833252E+02  0.53417191166E+02  0.00000000000E+00 0.  1.
         12    1    4    4    0    0 -0.80402851206E+02 -0.34575916205E+02  0.26298870209E+02  0.91387871393E+02  0.00000000000E+00 0. -1.
         -5    1    5    5    0  502  0.35943818717E+02 -0.11349295392E+02  0.53767607999E+02  0.65831681429E+02  0.47000000000E+01 0.  1.
         13    1    6    6    0    0 -0.30135390558E+01  0.28898889673E+02 -0.44887195386E+02  0.53470436239E+02  0.00000000000E+00 0. -1.
        -14    1    6    6    0    0  0.93108636058E+02  0.50200892159E+02 -0.36405795021E+02  0.11186925222E+03  0.00000000000E+00 0.  1.
</event>
<event>
12    1  0.1596842E-001  0.2113024E+03  0.7818608E-02  0.1140573E+00
         21   -1    0    0  501  502  0.00000000000E+00  0.00000000000E+00  0.23542996522E+03  0.23542996522E+03  0.00000000000E+00 0.  1.
         21   -1    0    0  502  503 -0.00000000000E+00 -0.00000000000E+00 -0.18950239521E+03  0.18950239521E+03  0.00000000000E+00 0.  1.
         -6    2    1    2    0  503  0.98224775651E+02 -0.72658230064E+02  0.21313532853E+02  0.21237462669E+03  0.17239892816E+03 0.  0.
        -24    2    3    3    0    0 -0.63712145089E+01 -0.67423061227E+02 -0.34595109847E+01  0.10465498200E+03  0.79713458602E+02 0.  0.
          6    2    1    2  501    0 -0.98224775651E+02  0.72658230064E+02  0.24614037154E+02  0.21255773375E+03  0.17218482629E+03 0.  0.
         24    2    5    5    0    0 -0.78121137354E+02  0.11000536690E+02  0.72202495340E+02  0.13198119388E+03  0.77342816700E+02 0.  0.
          5    1    5    5  501    0 -0.20103638296E+02  0.61657693374E+02 -0.47588458186E+02  0.80576539870E+02  0.47000000000E+01 0. -1.
        -11    1    6    6    0    0 -0.26369226382E+02  0.40597949515E+02  0.18764787699E+02  0.51919619242E+02  0.00000000000E+00 0.  1.
         12    1    6    6    0    0 -0.51751910972E+02 -0.29597412825E+02  0.53437707641E+02  0.80061574636E+02  0.00000000000E+00 0. -1.
         -5    1    3    3    0  503  0.10459599016E+03 -0.52351688370E+01  0.24773043838E+02  0.10771964469E+03  0.47000000000E+01 0.  1.
         13    1    4    4    0    0  0.10386864931E+02 -0.50098093106E+02  0.33047555478E+02  0.60908511876E+02  0.00000000000E+00 0. -1.
        -14    1    4    4    0    0 -0.16758079440E+02 -0.17324968121E+02 -0.36507066462E+02  0.43746470127E+02  0.00000000000E+00 0.  1.
</event>
<event>
12    1  0.1596842E-001  0.2258855E+03  0.7818608E-02  0.1129682E+00
         21   -1    0    0  501  502  0.00000000000E+00  0.00000000000E+00  0.22475040083E+02  0.22475040083E+02  0.00000000000E+00 0.  1.
         21   -1    0    0  502  503 -0.00000000000E+00 -0.00000000000E+00 -0.22705472050E+04  0.22705472050E+04  0.00000000000E+00 0.  1.
         -6    2    1    2    0  503  0.75750626371E+02 -0.12426014074E+03 -0.11871769674E+04  0.12084756617E+04  0.17275859763E+03 0.  0.
        -24    2    3    3    0    0  0.18023615198E+02 -0.14307106402E+03 -0.83558873226E+03  0.85165268635E+03  0.79432919084E+02 0.  0.
          6    2    1    2  501    0 -0.75750626371E+02  0.12426014074E+03 -0.10608951975E+04  0.10845465833E+04  0.17194165118E+03 0.  0.
         24    2    5    5    0    0 -0.11152895502E+02  0.11770939024E+03 -0.50539924039E+03  0.52524914233E+03  0.80488394852E+02 0.  0.
          5    1    5    5  501    0 -0.64597730869E+02  0.65507504985E+01 -0.55549595707E+03  0.55929744098E+03  0.47000000000E+01 0. -1.
        -13    1    6    6    0    0 -0.37169595417E+02  0.49689121484E+02 -0.14759807464E+03  0.16011177113E+03  0.00000000000E+00 0.  1.
         14    1    6    6    0    0  0.26016699915E+02  0.68020268759E+02 -0.35780116575E+03  0.36513737120E+03  0.00000000000E+00 0. -1.
         -5    1    3    3    0  503  0.57727011173E+02  0.18810923279E+02 -0.35158823516E+03  0.35682297537E+03  0.47000000000E+01 0.  1.
         11    1    4    4    0    0 -0.25353685094E+02 -0.70147865515E+02 -0.28666725300E+03  0.29621216438E+03  0.00000000000E+00 0. -1.
        -12    1    4    4    0    0  0.43377300292E+02 -0.72923198505E+02 -0.54892147925E+03  0.55544052197E+03  0.00000000000E+00 0.  1.
</event>
<event>
12    1  0.1596842E-001  0.2520768E+03  0.7818608E-02  0.1112101E+00
         21   -1    0    0  503  502  0.00000000000E+00  0.00000000000E+00  0.62278966046E+03  0.62278966046E+03  0.00000000000E+00 0.  1.
         21   -1    0    0  501  503 -0.00000000000E+00 -0.00000000000E+00 -0.11086131633E+03  0.11086131633E+03  0.00000000000E+00 0. -1.
          6    2    1    2  501    0  0.68449778025E+02 -0.17025614759E+03  0.15059843118E+03  0.29308088859E+03  0.17188365798E+03 0.  0.
         24    2    3    3    0    0  0.92771103445E+02 -0.18335238730E+03  0.11932270641E+03  0.25108923079E+03  0.81137648429E+02 0.  0.
         -6    2    1    2    0  502 -0.68449778025E+02  0.17025614759E+03  0.36132991295E+03  0.44057008819E+03  0.17282988373E+03 0.  0.
        -24    2    5    5    0    0 -0.95095050072E+02  0.78176640629E+02  0.26512732565E+03  0.30468177402E+03  0.85929208803E+02 0.  0.
          5    1    3    3  501    0 -0.24321325420E+02  0.13096239711E+02  0.31275724772E+02  0.41991657799E+02  0.47000000000E+01 0. -1.
        -13    1    4    4    0    0 -0.70622217840E+01 -0.36333556668E+02  0.45502822342E+02  0.58655853568E+02  0.00000000000E+00 0.  1.
         14    1    4    4    0    0  0.99833325229E+02 -0.14701883063E+03  0.73819884066E+02  0.19243337723E+03  0.00000000000E+00 0. -1.
         -5    1    5    5    0  502  0.26645272047E+02  0.92079506964E+02  0.96202587302E+02  0.13588831417E+03  0.47000000000E+01 0.  1.
         13    1    6    6    0    0 -0.19090685696E+02  0.64047004233E+02  0.81184532211E+02  0.10515417872E+03  0.00000000000E+00 0. -1.
        -14    1    6    6    0    0 -0.76004364376E+02  0.14129636396E+02  0.18394279344E+03  0.19952759530E+03  0.00000000000E+00 0.  1.
</event>
<event>
12    1  0.1596842E-001  0.1796719E+03  0.7818608E-02  0.1168152E+00
         21   -1    0    0  501  502  0.00000000000E+00  0.00000000000E+00  0.51889649406E+02  0.51889649406E+02  0.00000000000E+00 0.  1.
         21   -1    0    0  502  503 -0.00000000000E+00 -0.00000000000E+00 -0.63310310764E+03  0.63310310764E+03  0.00000000000E+00 0.  1.
         -6    2    1    2    0  503  0.50250133937E+02 -0.54306437466E+01 -0.24470912173E+03  0.30358611398E+03  0.17241637536E+03 0.  0.
        -24    2    3    3    0    0  0.97911515387E+01 -0.58075012501E+02 -0.90480104531E+02  0.13560683382E+03  0.82060894073E+02 0.  0.
          6    2    1    2  501    0 -0.50250133937E+02  0.54306437466E+01 -0.33650433650E+03  0.38140664307E+03  0.17228259064E+03 0.  0.
         24    2    5    5    0    0 -0.69154178901E-01  0.51447848388E+02 -0.11435321230E+03  0.14900843774E+03  0.80498269976E+02 0.  0.
          5    1    5    5  501    0 -0.50180979758E+02 -0.46017204641E+02 -0.22215112421E+03  0.23239820532E+03  0.47000000000E+01 0. -1.
        -11    1    6    6    0    0 -0.17164831470E+02  0.13711606815E+02 -0.10401522972E+03  0.10630996009E+03  0.00000000000E+00 0.  1.
         12    1    6    6    0    0  0.17095677291E+02  0.37736241573E+02 -0.10337982582E+02  0.42698477654E+02  0.00000000000E+00 0. -1.
         -5    1    3    3    0  503  0.40458982398E+02  0.52644368754E+02 -0.15422901720E+03  0.16797928016E+03  0.47000000000E+01 0.  1.
         11    1    4    4    0    0  0.46835416232E+01  0.21126264750E+02 -0.19796480831E+02  0.29328403941E+02  0.00000000000E+00 0. -1.
        -12    1    4    4    0    0  0.51076099155E+01 -0.79201277251E+02 -0.70683623700E+02  0.10627842987E+03  0.00000000000E+00 0.  1.
</event>
<event>
12    1  0.1596842E-001  0.2692878E+03  0.7818608E-02  0.1101748E+00
         21   -1    0    0  503  502  0.00000000000E+00  0.00000000000E+00  0.13313104460E+04  0.13313104460E+04  0.00000000000E+00 0. -1.
         21   -1    0    0  501  503 -0.00000000000E+00 -0.00000000000E+00 -0.62421661051E+02  0.62421661051E+02  0.00000000000E+00 0.  1.
          6    2    1    2  501    0 -0.20650598991E+03 -0.15684799838E+02  0.88491281091E+03  0.92497924976E+03  0.17211970473E+03 0.  0.
         24    2    3    3    0    0 -0.72102764039E+02 -0.64661216715E+02  0.38065435443E+03  0.40080218286E+03  0.79779513075E+02 0.  0.
         -6    2    1    2    0  502  0.20650598991E+03  0.15684799838E+02  0.38397597400E+03  0.46875285726E+03  0.17146706903E+03 0.  0.
        -24    2    5    5    0    0  0.14227900861E+03  0.33136672046E+02  0.36225786941E+03  0.39858563530E+03  0.79362392804E+02 0.  0.
          5    1    3    3  501    0 -0.13440322587E+03  0.48976416877E+02  0.50425845648E+03  0.52417706690E+03  0.47000000000E+01 0. -1.
        -13    1    4    4    0    0  0.13677356998E+02 -0.15664299154E+02  0.12513883893E+03  0.12685491465E+03  0.00000000000E+00 0.  1.
         14    1    4    4    0    0 -0.85780121038E+02 -0.48996917560E+02  0.25551551551E+03  0.27394726821E+03  0.00000000000E+00 0. -1.
         -5    1    5    5    0  502  0.64226981298E+02 -0.17451872208E+02  0.21718104593E+02  0.70167221958E+02  0.47000000000E+01 0.  1.
         13    1    6    6    0    0  0.87022387087E+02 -0.20236991721E+02  0.18848921307E+03  0.20859198242E+03  0.00000000000E+00 0. -1.
        -14    1    6    6    0    0  0.55256621525E+02  0.53373663767E+02  0.17376865634E+03  0.18999365288E+03  0.00000000000E+00 0.  1.
</event>
<event>
12    1  0.1596842E-001  0.1789682E+03  0.7818608E-02  0.1169260E+00
         21   -1    0    0  503  502  0.00000000000E+00  0.00000000000E+00  0.41471948029E+03  0.41471948029E+03  0.00000000000E+00 0. -1.
         21   -1    0    0  501  503 -0.00000000000E+00 -0.00000000000E+00 -0.11760701800E+03  0.11760701800E+03  0.00000000000E+00 0. -1.
          6    2    1    2  501    0 -0.38021213390E+02 -0.18670860504E+02 -0.84249905917E+01  0.17916638058E+03  0.17388328777E+03 0.  0.
         24    2    3    3    0    0 -0.94115202979E+01 -0.26013050071E+02 -0.70942840683E+02  0.10986274528E+03  0.79193943374E+02 0.  0.
         -6    2    1    2    0  502  0.38021213390E+02  0.18670860504E+02  0.30553745288E+03  0.35316011771E+03  0.17197302092E+03 0.  0.
        -24    2    5    5    0    0  0.69726845866E+01  0.77415010283E+02  0.15414958694E+03  0.18776585472E+03  0.73839142043E+02 0.  0.
          5    1    3    3  501    0 -0.28609693092E+02  0.73421895666E+01  0.62517850092E+02  0.69303635305E+02  0.47000000000E+01 0. -1.
        -13    1    4    4    0    0  0.13319383070E+02 -0.16214424644E+02  0.11399648101E+02  0.23880232594E+02  0.00000000000E+00 0.  1.
         14    1    4    4    0    0 -0.22730903368E+02 -0.97986254263E+01 -0.82342488784E+02  0.85982512683E+02  0.00000000000E+00 0. -1.
         -5    1    5    5    0  502  0.31048528804E+02 -0.58744149779E+02  0.15138786594E+03  0.16539426298E+03  0.47000000000E+01 0.  1.
         13    1    6    6    0    0  0.25085591881E+02  0.11546782254E+02  0.89677363046E+02  0.93833067430E+02  0.00000000000E+00 0. -1.
        -14    1    6    6    0    0 -0.18112907294E+02  0.65868228029E+02  0.64472223896E+02  0.93932787292E+02  0.00000000000E+00 0.  1.
</event>
<event>
12    1  0.1596842E-001  0.2290362E+03  0.7818608E-02  0.1127400E+00
         21   -1    0    0  501  502  0.00000000000E+00  0.00000000000E+00  0.10813877683E+03  0.10813877683E+03  0.00000000000E+00 0. -1.
         21   -1    0    0  502  503 -0.00000000000E+00 -0.00000000000E+00 -0.49444259131E+03  0.49444259131E+03  0.00000000000E+00 0.  1.
         -6    2    1    2    0  503 -0.28795125990E+02 -0.14775085214E+03 -0.23682386690E+03  0.32945883888E+03  0.17262128778E+03 0.  0.
        -24    2    3    3    0    0 -0.84250479066E+02 -0.11963528142E+03 -0.16601825768E+03  0.23511210709E+03  0.79403383039E+02 0.  0.
          6    2    1    2  501    0  0.28795125990E+02  0.14775085214E+03 -0.14947994758E+03  0.27312252925E+03  0.17202379972E+03 0.  0.
         24    2    5    5    0    0  0.22283050463E+02  0.15173188625E+03 -0.17500132373E+03  0.24607282683E+03  0.80045444319E+02 0.  0.
          5    1    5    5  501    0  0.65120755272E+01 -0.39810341059E+01  0.25521376155E+02  0.27049702421E+02  0.47000000000E+01 0. -1.
        -11    1    6    6    0    0 -0.11504893765E+02  0.31331513136E+01 -0.42472920432E+02  0.44114942908E+02  0.00000000000E+00 0.  1.
         12    1    6    6    0    0  0.33787944228E+02  0.14859873493E+03 -0.13252840330E+03  0.20195788393E+03  0.00000000000E+00 0. -1.
         -5    1    3    3    0  503  0.55455353076E+02 -0.28115570724E+02 -0.70805609224E+02  0.94346731790E+02  0.47000000000E+01 0.  1.
         13    1    4    4    0    0 -0.12339042804E+02 -0.77443454701E+02 -0.52928882528E+02  0.94610819989E+02  0.00000000000E+00 0. -1.
        -14    1    4    4    0    0 -0.71911436262E+02 -0.42191826715E+02 -0.11308937515E+03  0.14050128710E+03  0.00000000000E+00 0.  1.
</event>
<event>
12    1  0.1596842E-001  0.1740489E+03  0.7818608E-02  0.1174218E+00
         21   -1    0    0  503  502  0.00000000000E+00  0.00000000000E+00  0.29106688392E+03  0.29106688392E+03  0.00000000000E+00 0.  1.
         21   -1    0    0  501  503 -0.00000000000E+00 -0.00000000000E+00 -0.10431427144E+03  0.10431427144E+03  0.00000000000E+00 0.  1.
          6    2    1    2  501    0  0.16702018104E+02  0.15760283923E+02  0.70412278755E+02  0.18775222796E+03  0.17252729102E+03 0.  0.
         24    2    3    3    0    0  0.23553962317E+02  0.23358045810E+02  0.11354744947E+03  0.14317187267E+03  0.80652181611E+02 0.  0.
         -6    2    1    2    0  502 -0.16702018104E+02 -0.15760283923E+02  0.11634033372E+03  0.20762892740E+03  0.17043284392E+03 0.  0.
        -24    2    5    5    0    0 -0.25303681352E+02  0.12558234307E+02  0.14623154434E+03  0.16530279413E+03  0.71717247925E+02 0.  0.
          5    1    3    3  501    0 -0.68519442126E+01 -0.75977618867E+01 -0.43135170715E+02  0.44580355290E+02  0.47000000000E+01 0. -1.
        -13    1    4    4    0    0  0.47999503453E+02 -0.52257566560E+01  0.75899100913E+02  0.89955179861E+02  0.00000000000E+00 0.  1.
         14    1    4    4    0    0 -0.24445541136E+02  0.28583802466E+02  0.37648348557E+02  0.53216692812E+02  0.00000000000E+00 0. -1.
         -5    1    5    5    0  502  0.86016632478E+01 -0.28318518230E+02 -0.29891210616E+02  0.42326133269E+02  0.47000000000E+01 0.  1.
         11    1    6    6    0    0  0.19767520304E+01  0.38436253320E+02  0.87156768884E+02  0.95276206265E+02  0.00000000000E+00 0. -1.
        -12    1    6    6    0    0 -0.27280433383E+02 -0.25878019013E+02  0.59074775453E+02  0.70026587868E+02  0.00000000000E+00 0.  1.
</event>
<event>
12    1  0.1596842E-001  0.2015635E+03  0.7818608E-02  0.1149633E+00
         21   -1    0    0  501  502  0.00000000000E+00  0.00000000000E+00  0.57429520342E+03  0.57429520342E+03  0.00000000000E+00 0.  1.
         21   -1    0    0  502  503 -0.00000000000E+00 -0.00000000000E+00 -0.76491422833E+02  0.76491422833E+02  0.00000000000E+00 0. -1.
         -6    2    1    2    0  503  0.10395265543E+03  0.78260464868E+01  0.14226583214E+03  0.24208739935E+03  0.16582925059E+03 0.  0.
        -24    2    3    3    0    0  0.88710225153E+02 -0.12438723553E+02  0.16771119201E+03  0.20585828226E+03  0.78907303593E+02 0.  0.
          6    2    1    2  501    0 -0.10395265543E+03 -0.78260464868E+01  0.35553794845E+03  0.40869922691E+03  0.17251209731E+03 0.  0.
         24    2    5    5    0    0 -0.91026073917E+02  0.45921975760E+02  0.31366328475E+03  0.33919006302E+03  0.79187553693E+02 0.  0.
          5    1    5    5  501    0 -0.12926581514E+02 -0.53748022247E+02  0.41874663694E+02  0.69509163889E+02  0.47000000000E+01 0. -1.
        -11    1    6    6    0    0 -0.70333301731E+02 -0.78769506924E+01  0.15541126945E+03  0.17076733399E+03  0.00000000000E+00 0.  1.
         12    1    6    6    0    0 -0.20692772185E+02  0.53798926453E+02  0.15825201530E+03  0.16842272903E+03  0.00000000000E+00 0. -1.
         -5    1    3    3    0  503  0.15242430277E+02  0.20264770040E+02 -0.25445359870E+02  0.36229117081E+02  0.47000000000E+01 0.  1.
         11    1    4    4    0    0  0.46878461437E+02  0.27422035502E+02  0.46176657966E+02  0.71287038925E+02  0.00000000000E+00 0. -1.
        -12    1    4    4    0    0  0.41831763716E+02 -0.39860759055E+02  0.12153453405E+03  0.13457124334E+03  0.00000000000E+00 0.  1.
</event>
<event>
12    1  0.1596842E-001  0.1990479E+03  0.7818608E-02  0.1151418E+00
         21   -1    0    0  501  502  0.00000000000E+00  0.00000000000E+00  0.62843734602E+03  0.62843734602E+03  0.00000000000E+00 0.  1.
         21   -1    0    0  502  503 -0.00000000000E+00 -0.00000000000E+00 -0.40271321154E+03  0.40271321154E+03  0.00000000000E+00 0.  1.
         -6    2    1    2    0  503 -0.29947946993E+02  0.88054687661E+02 -0.36134996522E+03  0.41254559169E+03  0.17598170447E+03 0.  0.
        -24    2    3    3    0    0 -0.86754013646E+02  0.49029628506E+02 -0.25936536658E+03  0.28936753841E+03  0.80827071869E+02 0.  0.
          6    2    1    2  501    0  0.29947946993E+02 -0.88054687661E+02  0.58707409970E+03  0.61860496587E+03  0.17136393350E+03 0.  0.
         24    2    5    5    0    0  0.14988384768E+01 -0.24980211487E+01  0.14930751137E+03  0.17162513319E+03  0.84581125345E+02 0.  0.
          5    1    5    5  501    0  0.28449108516E+02 -0.85556666513E+02  0.43776658833E+03  0.44697983267E+03  0.47000000000E+01 0. -1.
        -13    1    6    6    0    0  0.16604139407E+02 -0.36441719255E+02  0.11212581974E+03  0.11906257095E+03  0.00000000000E+00 0.  1.
         14    1    6    6    0    0 -0.15105300930E+02  0.33943698106E+02  0.37181691633E+02  0.52562562248E+02  0.00000000000E+00 0. -1.
         -5    1    3    3    0  503  0.56806066653E+02  0.39025059155E+02 -0.10198459864E+03  0.12317805328E+03  0.47000000000E+01 0.  1.
         13    1    4    4    0    0 -0.37216893308E+02 -0.20500697933E+02 -0.75117999089E+02  0.86302314861E+02  0.00000000000E+00 0. -1.
        -14    1    4    4    0    0 -0.49537120338E+02  0.69530326439E+02 -0.18424736750E+03  0.20306522355E+03  0.00000000000E+00 0.  1.
</event>
<event>
12    1  0.1596842E-001  0.3144037E+03  0.7818608E-02  0.1078662E+00
         21   -1    0    0  503  502  0.00000000000E+00  0.00000000000E+00  0.29229724050E+04  0.29229724050E+04  0.00000000000E+00 0.  1.
         21   -1    0    0  501  503 -0.00000000000E+00 -0.00000000000E+00 -0.77439956586E+02  0.77439956586E+02  0.00000000000E+00 0. -1.
          6    2    1    2  501    0  0.80424851985E+02 -0.24671799462E+03  0.29544719847E+03  0.43143800474E+03  0.17751557443E+03 0.  0.
         24    2    3    3    0    0  0.11183683493E+03 -0.11857418327E+03  0.14918873567E+03  0.23440710108E+03  0.78243821456E+02 0.  0.
         -6    2    1    2    0  502 -0.80424851985E+02  0.24671799462E+03  0.25500852500E+04  0.25689743569E+04  0.17133749871E+03 0.  0.
        -24    2    5    5    0    0 -0.75701695048E+02  0.17846415951E+03  0.12920012557E+04  0.13090226431E+04  0.81809734998E+02 0.  0.
          5    1    3    3  501    0 -0.31411982949E+02 -0.12814381134E+03  0.14625846279E+03  0.19703090366E+03  0.47000000000E+01 0. -1.
        -11    1    4    4    0    0  0.11735415828E+03 -0.12371834590E+03  0.13202569236E+03  0.21565947932E+03  0.00000000000E+00 0.  1.
         12    1    4    4    0    0 -0.55173233414E+01  0.51441626214E+01  0.17163043310E+02  0.18747621758E+02  0.00000000000E+00 0. -1.
         -5    1    5    5    0  502 -0.47231569372E+01  0.68253835107E+02  0.12580839943E+04  0.12599517137E+04  0.47000000000E+01 0.  1.
         11    1    6    6    0    0 -0.16277079342E+02  0.88576824753E+02  0.37265139819E+03  0.38337952706E+03  0.00000000000E+00 0. -1.
        -12    1    6    6    0    0 -0.59424615706E+02  0.89887334758E+02  0.91934985746E+03  0.92564311607E+03  0.00000000000E+00 0.  1.
</event>
<event>
12    1  0.1596842E-001  0.2623164E+03  0.7818608E-02  0.1105780E+00
         21   -1    0    0  503  502  0.00000000000E+00  0.00000000000E+00  0.44518442280E+03  0.44518442280E+03  0.00000000000E+00 0.  1.
         21   -1    0    0  501  503 -0.00000000000E+00 -0.00000000000E+00 -0.16698024371E+03  0.16698024371E+03  0.00000000000E+00 0. -1.
          6    2    1    2  501    0  0.10888025739E+03 -0.16676444265E+03  0.22280803744E+03  0.34406276958E+03  0.17050066888E+03 0.  0.
         24    2    3    3    0    0  0.68844891606E+02 -0.29862262980E+02  0.14587248241E+03  0.18193255359E+03  0.78672098492E+02 0.  0.
         -6    2    1    2    0  502 -0.10888025739E+03  0.16676444265E+03  0.55396141663E+02  0.26810189693E+03  0.17071791015E+03 0.  0.
        -24    2    5    5    0    0 -0.10805376117E+03  0.16833012217E+03  0.90052486525E+02  0.23308352050E+03  0.78789795446E+02 0.  0.
          5    1    3    3  501    0  0.40035365780E+02 -0.13690217967E+03  0.76935555028E+02  0.16213021599E+03  0.47000000000E+01 0. -1.
        -11    1    4    4    0    0  0.85274521038E+02 -0.16266684305E+02  0.12415615913E+03  0.15149620723E+03  0.00000000000E+00 0.  1.
         12    1    4    4    0    0 -0.16429629431E+02 -0.13595578675E+02  0.21716323280E+02  0.30436346356E+02  0.00000000000E+00 0. -1.
         -5    1    5    5    0  502 -0.82649621577E+00 -0.15656795250E+01 -0.34656344863E+02  0.35018376427E+02  0.47000000000E+01 0.  1.
         13    1    6    6    0    0 -0.44929149974E+02  0.11779624041E+03  0.23253469993E+02  0.12820025990E+03  0.00000000000E+00 0. -1.
        -14    1    6    6    0    0 -0.63124611197E+02  0.50533881765E+02  0.66799016532E+02  0.10488326060E+03  0.00000000000E+00 0.  1.
</event>
<event>
12    1  0.1596842E-001  0.1963119E+03  0.7818608E-02  0.1153242E+00
         21   -1    0    0  503  502  0.00000000000E+00  0.00000000000E+00  0.54643223919E+03  0.54643223919E+03  0.00000000000E+00 0.  1.
         21   -1    0    0  501  503 -0.00000000000E+00 -0.00000000000E+00 -0.81800279563E+02  0.81800279563E+02  0.00000000000E+00 0.  1.
          6    2    1    2  501    0  0.25030788491E+02 -0.88870608439E+02  0.35107738106E+03  0.40144408102E+03  0.17139865017E+03 0.  0.
         24    2    3    3    0    0  0.15309105951E+01 -0.11331740334E+03  0.33723927182E+03  0.36451884156E+03  0.79375574395E+02 0.  0.
         -6    2    1    2    0  502 -0.25030788491E+02  0.88870608439E+02  0.11355457856E+03  0.22678843773E+03  0.17324499345E+03 0.  0.
        -24    2    5    5    0    0  0.19918270196E+02  0.13206077203E+01  0.93401793964E+02  0.12622181687E+03  0.82520121466E+02 0.  0.
          5    1    3    3  501    0  0.23499877896E+02  0.24446794898E+02  0.13838109240E+02  0.36925239461E+02  0.47000000000E+01 0. -1.
        -13    1    4    4    0    0  0.38782617963E+02 -0.77462860526E+02  0.21473730937E+03  0.23155279798E+03  0.00000000000E+00 0.  1.
         14    1    4    4    0    0 -0.37251707368E+02 -0.35854542811E+02  0.12250196245E+03  0.13296604358E+03  0.00000000000E+00 0. -1.
         -5    1    5    5    0  502 -0.44949058687E+02  0.87550000718E+02  0.20152784600E+02  0.10056662085E+03  0.47000000000E+01 0.  1.
         13    1    6    6    0    0  0.13951439753E+02 -0.36263250726E+02  0.20370280520E+02  0.43870426859E+02  0.00000000000E+00 0. -1.
        -14    1    6    6    0    0  0.59668304428E+01  0.37583858446E+02  0.73031513444E+02  0.82351390014E+02  0.00000000000E+00 0.  1.
</event>
<event>
12    1  0.1596842E-001  0.1964853E+03  0.7818608E-02  0.1153622E+00
         21   -1    0    0  503  502  0.00000000000E+00  0.00000000000E+00  0.33423917271E+03  0.33423917271E+03  0.00000000000E+00 0.  1.
         21   -1    0    0  501  503 -0.00000000000E+00 -0.00000000000E+00 -0.24156671701E+03  0.24156671701E+03  0.00000000000E+00 0.  1.
          6    2    1    2  501    0  0.56665882479E+02  0.66439310895E+02 -0.16380600547E+03  0.25271504793E+03  0.17148552053E+03 0.  0.
         24    2    3    3    0    0 -0.34885238965E+02  0.17447395805E+02 -0.63595062800E+02  0.10833312865E+03  0.78551532340E+02 0.  0.
         -6    2    1    2    0  502 -0.56665882479E+02 -0.66439310895E+02  0.25647846117E+03  0.32309084179E+03  0.17601501849E+03 0.  0.
        -24    2    5    5    0    0 -0.13128504831E+02  0.21984214613E+02  0.18003338849E+03  0.19827032163E+03  0.79015417084E+02 0.  0.
          5    1    3    3  501    0  0.91551121444E+02  0.48991915091E+02 -0.10021094267E+03  0.14438191928E+03  0.47000000000E+01 0. -1.
        -13    1    4    4    0    0  0.81529712705E+01 -0.16146711704E+02 -0.48386989616E+02  0.51657409957E+02  0.00000000000E+00 0.  1.
         14    1    4    4    0    0 -0.43038210236E+02  0.33594107509E+02 -0.15208073184E+02  0.56675718695E+02  0.00000000000E+00 0. -1.
         -5    1    5    5    0  502 -0.43537377648E+02 -0.88423525509E+02  0.76445072680E+02  0.12482052016E+03  0.47000000000E+01 0.  1.
         11    1    6    6    0    0 -0.14553721652E+02  0.30748612431E+02  0.23179371314E+02  0.41165170167E+02  0.00000000000E+00 0. -1.
        -12    1    6    6    0    0  0.14252168209E+01 -0.87643978178E+01  0.15685401718E+03  0.15710515147E+03  0.00000000000E+00 0.  1.
</event>
<event>
12    1  0.1596842E-001  0.2646214E+03  0.7818608E-02  0.1104716E+00
         21   -1    0    0  503  502  0.00000000000E+00  0.00000000000E+00  0.14912579100E+03  0.14912579100E+03  0.00000000000E+00 0.  1.
         21   -1    0    0  501  503 -0.00000000000E+00 -0.00000000000E+00 -0.46596355987E+03  0.46596355987E+03  0.00000000000E+00 0. -1.
          6    2    1    2  501    0 -0.17758437014E+03 -0.87231136274E+02 -0.16569845457E+03  0.31221864940E+03  0.17572429410E+03 0.  0.
         24    2    3    3    0    0 -0.57185485329E+02 -0.13824811649E+02 -0.21893050766E+02  0.11075782413E+03  0.91250670047E+02 0.  0.
         -6    2    1    2    0  502  0.17758437014E+03  0.87231136274E+02 -0.15113931430E+03  0.30287070147E+03  0.17245895113E+03 0.  0.
        -24    2    5    5    0    0  0.14090153016E+02  0.49612347078E+02 -0.21240684461E+02  0.90641400078E+02  0.71447738503E+02 0.  0.
          5    1    3    3  501    0 -0.12039888481E+03 -0.73406324625E+02 -0.14380540380E+03  0.20146082528E+03  0.47000000000E+01 0. -1.
        -11    1    4    4    0    0 -0.81924035027E+02 -0.76410970140E+01 -0.10934052173E+02  0.83002935946E+02  0.00000000000E+00 0.  1.
         12    1    4    4    0    0  0.24738549697E+02 -0.61837146354E+01 -0.10958998593E+02  0.27754888182E+02  0.00000000000E+00 0. -1.
         -5    1    5    5    0  502  0.16349421712E+03  0.37618789196E+02 -0.12989862984E+03  0.21222930139E+03  0.47000000000E+01 0.  1.
         11    1    6    6    0    0 -0.24882091469E+02  0.11968381122E+02 -0.23720268542E+02  0.36400711013E+02  0.00000000000E+00 0. -1.
        -12    1    6    6    0    0  0.38972244485E+02  0.37643965956E+02  0.24795840817E+01  0.54240689065E+02  0.00000000000E+00 0.  1.
</event>
<event>
12    1  0.1596842E-001  0.2158554E+03  0.7818608E-02  0.1137027E+00
         21   -1    0    0  503  502  0.00000000000E+00  0.00000000000E+00  0.17047286164E+03  0.17047286164E+03  0.00000000000E+00 0.  1.
         21   -1    0    0  501  503 -0.00000000000E+00 -0.00000000000E+00 -0.27394456874E+03  0.27394456874E+03  0.00000000000E+00 0.  1.
          6    2    1    2  501    0 -0.60648292433E+02 -0.11477839294E+03 -0.40284254805E+02  0.21958224638E+03  0.17245650721E+03 0.  0.
         24    2    3    3    0    0 -0.62962124149E+01 -0.13001838867E+03 -0.51084715169E+02  0.16191816730E+03  0.81629780682E+02 0.  0.
         -6    2    1    2    0  502  0.60648292433E+02  0.11477839294E+03 -0.63187452290E+02  0.22483518399E+03  0.17235402802E+03 0.  0.
        -24    2    5    5    0    0 -0.18150769023E+01  0.11362406679E+02  0.10473579521E+02  0.83256314347E+02  0.81789481114E+02 0.  0.
          5    1    3    3  501    0 -0.54352080018E+02  0.15239995733E+02  0.10800460364E+02  0.57664079081E+02  0.47000000000E+01 0. -1.
        -11    1    4    4    0    0 -0.41581636621E+02 -0.56345812594E+02 -0.36396693032E+02  0.78921494947E+02  0.00000000000E+00 0.  1.
         12    1    4    4    0    0  0.35285424206E+02 -0.73672576078E+02 -0.14688022137E+02  0.82996672353E+02  0.00000000000E+00 0. -1.
         -5    1    5    5    0  502  0.62463369335E+02  0.10341598626E+03 -0.73661031811E+02  0.14157886965E+03  0.47000000000E+01 0.  1.
         11    1    6    6    0    0  0.34873176832E+02  0.16708873640E+02 -0.11265819183E+02  0.40277085328E+02  0.00000000000E+00 0. -1.
        -12    1    6    6    0    0 -0.36688253734E+02 -0.53464669612E+01  0.21739398704E+02  0.42979229019E+02  0.00000000000E+00 0.  1.
</event>
<event>
12    1  0.1596842E-001  0.2220489E+03  0.7818608E-02  0.1132794E+00
         21   -1    0    0  501  502  0.00000000000E+00  0.00000000000E+00  0.73543036469E+03  0.73543036469E+03  0.00000000000E+00 0.  1.
         21   -1    0    0  502  503 -0.00000000000E+00 -0.00000000000E+00 -0.82187349186E+02  0.82187349186E+02  0.00000000000E+00 0.  1.
         -6    2    1    2    0  503  0.25471547479E+02 -0.13528779731E+03  0.14852501507E+03  0.26714302432E+03  0.17422435969E+03 0.  0.
        -24    2    3    3    0    0  0.51041060865E+02 -0.15500109310E+03  0.13608768967E+03  0.23222610709E+03  0.93694059456E+02 0.  0.
          6    2    1    2  501    0 -0.25471547479E+02  0.13528779731E+03  0.50471800043E+03  0.55047468955E+03  0.17126160120E+03 0.  0.
         24    2    5    5    0    0 -0.52162112239E+02  0.14111465416E+03  0.49060004896E+03  0.51936608846E+03  0.80115505539E+02 0.  0.
          5    1    5    5  501    0  0.26690564761E+02 -0.58268568502E+01  0.14117951464E+02  0.31108601086E+02  0.47000000000E+01 0. -1.
        -11    1    6    6    0    0 -0.22964453888E+02  0.12388444797E+03  0.29394226549E+03  0.31980740772E+03  0.00000000000E+00 0.  1.
         12    1    6    6    0    0 -0.29197658351E+02  0.17230206195E+02  0.19665778348E+03  0.19955868075E+03  0.00000000000E+00 0. -1.
         -5    1    3    3    0  503 -0.25569513387E+02  0.19713295791E+02  0.12437325398E+02  0.34916917230E+02  0.47000000000E+01 0.  1.
         11    1    4    4    0    0 -0.70426651103E+01  0.80321271584E+01  0.23343131786E+02  0.25671306942E+02  0.00000000000E+00 0. -1.
        -12    1    4    4    0    0  0.58083725975E+02 -0.16303322026E+03  0.11274455789E+03  0.20655480015E+03  0.00000000000E+00 0.  1.
</event>
<event>
12    1  0.1596842E-001  0.2451359E+03  0.7818608E-02  0.1116438E+00
         21   -1    0    0  501  502  0.00000000000E+00  0.00000000000E+00  0.13763997171E+04  0.13763997171E+04  0.00000000000E+00 0. -1.
         21   -1    0    0  502  503 -0.00000000000E+00 -0.00000000000E+00 -0.88882986924E+02  0.88882986924E+02  0.00000000000E+00 0. -1.
         -6    2    1    2    0  503  0.17454434176E+03  0.26554442361E+01  0.12111097449E+03  0.27342178411E+03  0.17210120645E+03 0.  0.
        -24    2    3    3    0    0  0.17940616254E+03 -0.96438783167E+01  0.14599512644E+03  0.24485219092E+03  0.79739845165E+02 0.  0.
          6    2    1    2  501    0 -0.17454434176E+03 -0.26554442361E+01  0.11664057557E+04  0.11918609199E+04  0.17192232808E+03 0.  0.
         24    2    5    5    0    0 -0.14319526612E+03 -0.62795723228E+02  0.89666633498E+03  0.91368640134E+03  0.79775538926E+02 0.  0.
          5    1    5    5  501    0 -0.31349075642E+02  0.60140278992E+02  0.26973942072E+03  0.27817451859E+03  0.47000000000E+01 0. -1.
        -11    1    6    6    0    0 -0.41080676525E+02  0.13375960943E+02  0.14495257030E+03  0.15125404441E+03  0.00000000000E+00 0.  1.
         12    1    6    6    0    0 -0.10211458959E+03 -0.76171684171E+02  0.75171376468E+03  0.76243235693E+03  0.00000000000E+00 0. -1.
         -5    1    3    3    0  503 -0.48618207827E+01  0.12299322553E+02 -0.24884151954E+02  0.28569593190E+02  0.47000000000E+01 0.  1.
         11    1    4    4    0    0  0.13984817650E+03 -0.37642717617E+02  0.12758592222E+03  0.19300946663E+03  0.00000000000E+00 0. -1.
        -12    1    4    4    0    0  0.39557986038E+02  0.27998839300E+02  0.18409204221E+02  0.51842724288E+02  0.00000000000E+00 0.  1.
</event>
<event>
12    1  0.1596842E-001  0.2122504E+03  0.7818608E-02  0.1139880E+00
         21   -1    0    0  501  502  0.00000000000E+00  0.00000000000E+00  0.27670581844E+02  0.27670581844E+02  0.00000000000E+00 0. -1.
         21   -1    0    0  502  503 -0.00000000000E+00 -0.00000000000E+00 -0.24481823785E+04  0.24481823785E+04  0.00000000000E+00 0. -1.
         -6    2    1    2    0  503 -0.74771136217E+02 -0.99670776281E+02 -0.49152903627E+03  0.53522813194E+03  0.17129907551E+03 0.  0.
        -24    2    3    3    0    0 -0.37512484456E+02 -0.40287667279E+02 -0.43334160548E+03  0.44400079027E+03  0.79507685788E+02 0.  0.
          6    2    1    2  501    0  0.74771136217E+02  0.99670776281E+02 -0.19289827604E+04  0.19406248284E+04  0.17182912526E+03 0.  0.
         24    2    5    5    0    0  0.10161936564E+03  0.90077536910E+02 -0.11250319152E+04  0.11361548730E+04  0.81918417351E+02 0.  0.
          5    1    5    5  501    0 -0.26848229420E+02  0.95932393703E+01 -0.80395084521E+03  0.80446995542E+03  0.47000000000E+01 0. -1.
        -13    1    6    6    0    0 -0.13192521961E+02  0.15042150622E+02 -0.99492959936E+02  0.10148476737E+03  0.00000000000E+00 0.  1.
         14    1    6    6    0    0  0.11481188760E+03  0.75035386289E+02 -0.10255389553E+04  0.10346701056E+04  0.00000000000E+00 0. -1.
         -5    1    3    3    0  503 -0.37258651761E+02 -0.59383109002E+02 -0.58187430789E+02  0.91227341667E+02  0.47000000000E+01 0.  1.
         11    1    4    4    0    0 -0.47170202908E+02 -0.55325415384E+02 -0.26767927456E+03  0.27737722268E+03  0.00000000000E+00 0. -1.
        -12    1    4    4    0    0  0.96577184523E+01  0.15037748105E+02 -0.16566233092E+03  0.16662356759E+03  0.00000000000E+00 0.  1.
</event>
<event>
12    1  0.1596842E-001  0.2018560E+03  0.7818608E-02  0.1148342E+00
         21   -1    0    0  503  502  0.00000000000E+00  0.00000000000E+00  0.30079435920E+03  0.30079435920E+03  0.00000000000E+00 0.  1.
         21   -1    0    0  501  503 -0.00000000000E+00 -0.00000000000E+00 -0.40714487824E+03  0.40714487824E+03  0.00000000000E+00 0.  1.
          6    2    1    2  501    0 -0.95518215220E+02  0.44689333281E+02 -0.34263158043E+03  0.39767103857E+03  0.17211911300E+03 0.  0.
         24    2    3    3    0    0 -0.85072843602E+02  0.75940972840E+02 -0.16027485350E+03  0.21230157879E+03  0.79871844956E+02 0.  0.
         -6    2    1    2    0  502  0.95518215220E+02 -0.44689333281E+02  0.23628106139E+03  0.31026819887E+03  0.17122134596E+03 0.  0.
        -24    2    5    5    0    0  0.74151942264E+02 -0.87855505881E+02  0.21642565958E+03  0.25795985290E+03  0.80536445972E+02 0.  0.
          5    1    3    3  501    0 -0.10445371617E+02 -0.31251639559E+02 -0.18235672693E+03  0.18536945978E+03  0.47000000000E+01 0. -1.
        -11    1    4    4    0    0 -0.88317380881E+02  0.44961370004E+02 -0.14945412442E+03  0.17932657323E+03  0.00000000000E+00 0.  1.
         12    1    4    4    0    0  0.32445372783E+01  0.30979602835E+02 -0.10820729078E+02  0.32975005561E+02  0.00000000000E+00 0. -1.
         -5    1    5    5    0  502  0.21366272956E+02  0.43166172601E+02  0.19855401814E+02  0.52308345971E+02  0.47000000000E+01 0.  1.
         13    1    6    6    0    0  0.54071894026E+01 -0.11608923706E+02 -0.51137203691E+01  0.13789667975E+02  0.00000000000E+00 0. -1.
        -14    1    6    6    0    0  0.68744752861E+02 -0.76246582175E+02  0.22153937995E+03  0.24417018493E+03  0.00000000000E+00 0.  1.
</event>
<event>
12    1  0.1596842E-001  0.1947232E+03  0.7818608E-02  0.1154348E+00
         21   -1    0    0  501  502  0.00000000000E+00  0.00000000000E+00  0.10541384516E+03  0.10541384516E+03  0.00000000000E+00 0.  1.
         21   -1    0    0  502  503 -0.00000000000E+00 -0.00000000000E+00 -0.40311305899E+03  0.40311305899E+03  0.00000000000E+00 0. -1.
         -6    2    1    2    0  503  0.90342336925E+02 -0.12537182876E+00 -0.23280832689E+03  0.30327598463E+03  0.17208966333E+03 0.  0.
        -24    2    3    3    0    0 -0.54391282489E+01 -0.20113927578E+02 -0.16346380789E+03  0.18325772041E+03  0.80179931403E+02 0.  0.
          6    2    1    2  501    0 -0.90342336925E+02  0.12537182876E+00 -0.64890886938E+02  0.20525091952E+03  0.17249741795E+03 0.  0.
         24    2    5    5    0    0 -0.45425137392E+02 -0.62634487044E+02 -0.12841371362E+02  0.11204364099E+03  0.80014714857E+02 0.  0.
          5    1    5    5  501    0 -0.44917199533E+02  0.62759858873E+02 -0.52049515577E+02  0.93207278532E+02  0.47000000000E+01 0. -1.
        -11    1    6    6    0    0 -0.13099967348E+02  0.19241716597E+02 -0.29059006784E+01  0.23458411304E+02  0.00000000000E+00 0.  1.
         12    1    6    6    0    0 -0.32325170044E+02 -0.81876203641E+02 -0.99354706836E+01  0.88585229688E+02  0.00000000000E+00 0. -1.
         -5    1    3    3    0  503  0.95781465174E+02  0.19988555750E+02 -0.69344518999E+02  0.12001826422E+03  0.47000000000E+01 0.  1.
         13    1    4    4    0    0 -0.19947817841E+02  0.23971602425E+02 -0.36120682740E+02  0.47720612748E+02  0.00000000000E+00 0. -1.
        -14    1    4    4    0    0  0.14508689592E+02 -0.44085530003E+02 -0.12734312515E+03  0.13553710766E+03  0.00000000000E+00 0.  1.
</event>
<event>
12    1  0.1596842E-001  0.2339076E+03  0.7818608E-02  0.1123938E+00
         21   -1    0    0  501  502  0.00000000000E+00  0.00000000000E+00  0.89083288751E+02  0.89083288751E+02  0.00000000000E+00 0. -1.
         21   -1    0    0  502  503 -0.00000000000E+00 -0.00000000000E+00 -0.61815248560E+03  0.61815248560E+03  0.00000000000E+00 0. -1.
         -6    2    1    2    0  503 -0.14766857201E+03  0.56700920746E+02 -0.23512656336E+03  0.33158295202E+03  0.17216780099E+03 0.  0.
        -24    2    3    3    0    0 -0.81156712881E+02 -0.36260756262E+02 -0.11993893352E+03  0.16923769996E+03  0.79716979522E+02 0.  0.
          6    2    1    2  501    0  0.14766857201E+03 -0.56700920746E+02 -0.29394263349E+03  0.37565282234E+03  0.17231299885E+03 0.  0.
         24    2    5    5    0    0  0.18079592669E+02 -0.34830014594E+02 -0.61937024500E+02  0.10896886574E+03  0.80610279178E+02 0.  0.
          5    1    5    5  501    0  0.12958897934E+03 -0.21870906152E+02 -0.23200560899E+03  0.26668395660E+03  0.47000000000E+01 0. -1.
        -13    1    6    6    0    0  0.41361447543E+01 -0.57707557183E+02 -0.57941175800E+02  0.81880704092E+02  0.00000000000E+00 0.  1.
         14    1    6    6    0    0  0.13943447915E+02  0.22877542589E+02 -0.39958487000E+01  0.27088161649E+02  0.00000000000E+00 0. -1.
         -5    1    3    3    0  503 -0.66511859128E+02  0.92961677008E+02 -0.11518762984E+03  0.16234525205E+03  0.47000000000E+01 0.  1.
         11    1    4    4    0    0 -0.58843197187E+02 -0.30585856549E+02 -0.23924044409E+02  0.70500896285E+02  0.00000000000E+00 0. -1.
        -12    1    4    4    0    0 -0.22313515694E+02 -0.56748997137E+01 -0.96014889113E+02  0.98736803679E+02  0.00000000000E+00 0.  1.
</event>
<event>
12    1  0.1596842E-001  0.2680667E+03  0.7818608E-02  0.1102932E+00
         21   -1    0    0  503  502  0.00000000000E+00  0.00000000000E+00  0.49820405373E+03  0.49820405373E+03  0.00000000000E+00 0. -1.
         21   -1    0    0  501  503 -0.00000000000E+00 -0.00000000000E+00 -0.78315411542E+03  0.78315411542E+03  0.00000000000E+00 0.  1.
          6    2    1    2  501    0  0.23090039385E+02 -0.19973269460E+03 -0.72223530930E+03  0.77037885284E+03  0.17729477061E+03 0.  0.
         24    2    3    3    0    0  0.80110729477E+02 -0.14465898750E+03 -0.56099641874E+03  0.59064420915E+03  0.82459980118E+02 0.  0.
         -6    2    1    2    0  502 -0.23090039385E+02  0.19973269460E+03  0.43728524761E+03  0.51097931631E+03  0.17162509930E+03 0.  0.
        -24    2    5    5    0    0 -0.32489667373E+00  0.49673378919E+02  0.26616611630E+03  0.28220017162E+03  0.79529775959E+02 0.  0.
          5    1    3    3  501    0 -0.57020690092E+02 -0.55073707099E+02 -0.16123889056E+03  0.17973464369E+03  0.47000000000E+01 0. -1.
        -11    1    4    4    0    0 -0.90399499839E+00 -0.66249531765E+02 -0.28305845145E+03  0.29070931289E+03  0.00000000000E+00 0.  1.
         12    1    4    4    0    0  0.81014724476E+02 -0.78409455737E+02 -0.27793796728E+03  0.29993489625E+03  0.00000000000E+00 0. -1.
         -5    1    5    5    0  502 -0.22765142712E+02  0.15005931568E+03  0.17111913131E+03  0.22877914469E+03  0.47000000000E+01 0.  1.
         11    1    6    6    0    0 -0.42391532845E+01  0.67463950209E+02  0.24557249916E+03  0.25470611956E+03  0.00000000000E+00 0. -1.
        -12    1    6    6    0    0  0.39142566108E+01 -0.17790571290E+02  0.20593617143E+02  0.27494052060E+02  0.00000000000E+00 0.  1.
</event>
<event>
12    1  0.1596842E-001  0.2275521E+03  0.7818608E-02  0.1128460E+00
         21   -1    0    0  503  502  0.00000000000E+00  0.00000000000E+00  0.35587479873E+03  0.35587479873E+03  0.00000000000E+00 0.  1.
         21   -1    0    0  501  503 -0.00000000000E+00 -0.00000000000E+00 -0.16116642439E+03  0.16116642439E+03  0.00000000000E+00 0. -1.
          6    2    1    2  501    0  0.23274302372E+02  0.14682954934E+03  0.16062425715E+02  0.22811828374E+03  0.17227692865E+03 0.  0.
         24    2    3    3    0    0 -0.29092840715E+02  0.65252616960E+02  0.59309383876E+02  0.12186621100E+03  0.78927010374E+02 0.  0.
         -6    2    1    2    0  502 -0.23274302372E+02 -0.14682954934E+03  0.17864594862E+03  0.28892293938E+03  0.17164346836E+03 0.  0.
        -24    2    5    5    0    0  0.46131684533E+02 -0.11948483916E+03  0.12800589289E+03  0.19863767238E+03  0.81649599913E+02 0.  0.
          5    1    3    3  501    0  0.52367143087E+02  0.81576932381E+02 -0.43246958161E+02  0.10625207274E+03  0.47000000000E+01 0. -1.
        -11    1    4    4    0    0 -0.28930652288E+02  0.70669597374E+01  0.56192923905E+02  0.63596928060E+02  0.00000000000E+00 0.  1.
         12    1    4    4    0    0 -0.16218842695E+00  0.58185657222E+02  0.31164599716E+01  0.58269282939E+02  0.00000000000E+00 0. -1.
         -5    1    5    5    0  502 -0.69405986905E+02 -0.27344710178E+02  0.50640055722E+02  0.90285266996E+02  0.47000000000E+01 0.  1.
         13    1    6    6    0    0  0.18400924789E+01 -0.10484494943E+03  0.94983071293E+02  0.14148368525E+03  0.00000000000E+00 0. -1.
        -14    1    6    6    0    0  0.44291592054E+02 -0.14639889737E+02  0.33022821601E+02  0.57153987129E+02  0.00000000000E+00 0.  1.
</event>
<event>
12    1  0.1596842E-001  0.2083527E+03  0.7818608E-02  0.1143059E+00
         21   -1    0    0  501  502  0.00000000000E+00  0.00000000000E+00  0.68323100202E+02  0.68323100202E+02  0.00000000000E+00 0. -1.
         21   -1    0    0  502  503 -0.00000000000E+00 -0.00000000000E+00 -0.84394748875E+03  0.84394748875E+03  0.00000000000E+00 0. -1.
         -6    2    1    2    0  503  0.44319412458E+02  0.10992175814E+03 -0.61670615353E+03  0.65095107957E+03  0.17135876096E+03 0.  0.
        -24    2    3    3    0    0  0.36264462497E+02  0.46179999983E+02 -0.54792880907E+03  0.55671569841E+03  0.79111853792E+02 0.  0.
          6    2    1    2  501    0 -0.44319412458E+02 -0.10992175814E+03 -0.15891823502E+03  0.26131950939E+03  0.17025239303E+03 0.  0.
         24    2    5    5    0    0 -0.33642852850E+02 -0.30226545356E+02 -0.15653905334E+03  0.18073994392E+03  0.78211038320E+02 0.  0.
          5    1    5    5  501    0 -0.10676559608E+02 -0.79695212779E+02 -0.23791816780E+01  0.80579565464E+02  0.47000000000E+01 0. -1.
        -13    1    6    6    0    0 -0.57876498601E+02 -0.99603052050E+01 -0.10391706681E+03  0.11936353524E+03  0.00000000000E+00 0.  1.
         14    1    6    6    0    0  0.24233645750E+02 -0.20266240151E+02 -0.52621986531E+02  0.61376408682E+02  0.00000000000E+00 0. -1.
         -5    1    3    3    0  503  0.80549499608E+01  0.63741758152E+02 -0.68777344463E+02  0.94235381161E+02  0.47000000000E+01 0.  1.
         11    1    4    4    0    0  0.57636307459E+02  0.33057187531E+02 -0.47433579270E+03  0.47896676902E+03  0.00000000000E+00 0. -1.
        -12    1    4    4    0    0 -0.21371844962E+02  0.13122812452E+02 -0.73593016361E+02  0.77748929387E+02  0.00000000000E+00 0.  1.
</event>
<event>
12    1  0.1596842E-001  0.2126002E+03  0.7818608E-02  0.1139681E+00
         21   -1    0    0  503  502  0.00000000000E+00  0.00000000000E+00  0.33267031375E+02  0.33267031375E+02  0.00000000000E+00 0.  1.
         21   -1    0    0  501  503 -0.00000000000E+00 -0.00000000000E+00 -0.15099330371E+04  0.15099330371E+04  0.00000000000E+00 0.  1.
          6    2    1    2  501    0  0.60691140022E+02 -0.10729053026E+03 -0.49124753912E+03  0.53527842652E+03  0.17321713785E+03 0.  0.
         24    2    3    3    0    0  0.17769096922E+02 -0.85640933821E+02 -0.14891149504E+03  0.18955156339E+03  0.78134828851E+02 0.  0.
         -6    2    1    2    0  502 -0.60691140022E+02  0.10729053026E+03 -0.98541846657E+03  0.10079216419E+04  0.17222604226E+03 0.  0.
        -24    2    5    5    0    0 -0.43321385516E+02  0.14265388300E+03 -0.86000026134E+03  0.87637662571E+03  0.78795100086E+02 0.  0.
          5    1    3    3  501    0  0.42922043100E+02 -0.21649596444E+02 -0.34233604408E+03  0.34572686312E+03  0.47000000000E+01 0. -1.
        -11    1    4    4    0    0 -0.12535421477E+02 -0.21419075820E+02 -0.10071544899E+03  0.10372808330E+03  0.00000000000E+00 0.  1.
         12    1    4    4    0    0  0.30304518399E+02 -0.64221858001E+02 -0.48196046053E+02  0.85823480095E+02  0.00000000000E+00 0. -1.
         -5    1    5    5    0  502 -0.17369754506E+02 -0.35363352733E+02 -0.12541820523E+03  0.13154501621E+03  0.47000000000E+01 0.  1.
         11    1    6    6    0    0 -0.26916582360E+02  0.12943576423E+03 -0.82499506348E+03  0.83552078025E+03  0.00000000000E+00 0. -1.
        -12    1    6    6    0    0 -0.16404803156E+02  0.13218118769E+02 -0.35005197867E+02  0.40855845458E+02  0.00000000000E+00 0.  1.
</event>
<event>
12    1  0.1596842E-001  0.2184465E+03  0.7818608E-02  0.1135233E+00
         21   -1    0    0  503  502  0.00000000000E+00  0.00000000000E+00  0.28859977830E+03  0.28859977830E+03  0.00000000000E+00 0.  1.
         21   -1    0    0  501  503 -0.00000000000E+00 -0.00000000000E+00 -0.18010269338E+03  0.18010269338E+03  0.00000000000E+00 0.  1.
          6    2    1    2  501    0  0.13338258769E+03  0.20402016724E+01 -0.14397130748E+02  0.21892047028E+03  0.17298502193E+03 0.  0.
         24    2    3    3    0    0  0.63521832462E+01 -0.21525655980E+02 -0.34643233759E+02  0.88061508083E+02  0.77787990481E+02 0.  0.
         -6    2    1    2    0  502 -0.13338258769E+03 -0.20402016724E+01  0.12289421566E+03  0.24978200140E+03  0.17173521146E+03 0.  0.
        -24    2    5    5    0    0 -0.72212018725E+01  0.25720158049E+02  0.17016486856E+02  0.82690660205E+02  0.76383978514E+02 0.  0.
          5    1    3    3  501    0  0.12703040444E+03  0.23565857653E+02  0.20246103011E+02  0.13085896220E+03  0.47000000000E+01 0. -1.
        -13    1    4    4    0    0  0.29891162812E+02 -0.26899273211E+02  0.61285680310E+01  0.40676920479E+02  0.00000000000E+00 0.  1.
         14    1    4    4    0    0 -0.23538979566E+02  0.53736172302E+01 -0.40771801790E+02  0.47384587604E+02  0.00000000000E+00 0. -1.
         -5    1    5    5    0  502 -0.12616138582E+03 -0.27760359722E+02  0.10587772881E+03  0.16709134119E+03  0.47000000000E+01 0.  1.
         11    1    6    6    0    0 -0.25144759180E+02 -0.19610870214E+02  0.10144893668E+02  0.33462875135E+02  0.00000000000E+00 0. -1.
        -12    1    6    6    0    0  0.17923557308E+02  0.45331028263E+02  0.68715931884E+01  0.49227785070E+02  0.00000000000E+00 0.  1.
</event>
<event>
12    1  0.1596842E-001  0.2547203E+03  0.7818608E-02  0.1110526E+00
         21   -1    0    0  501  502  0.00000000000E+00  0.00000000000E+00  0.26538756058E+04  0.26538756058E+04  0.00000000000E+00 0. -1.
         21   -1    0    0  502  503 -0.00000000000E+00 -0.00000000000E+00 -0.25114464538E+02  0.25114464538E+02  0.00000000000E+00 0.  1.
         -6    2    1    2    0  503 -0.15625656348E+03  0.10260850563E+03  0.10769759382E+04  0.11064380884E+04  0.17141602334E+03 0.  0.
        -24    2    3    3    0    0 -0.52835509269E+02  0.11251490003E+03  0.69159329292E+03  0.70726904608E+03  0.80479978650E+02 0.  0.
          6    2    1    2  501    0  0.15625656348E+03 -0.10260850563E+03  0.15517852031E+04  0.15725519819E+04  0.17302543233E+03 0.  0.
         24    2    5    5    0    0  0.14800637808E+02 -0.30387113236E+02  0.77997753234E+03  0.78455776933E+03  0.77611255246E+02 0.  0.
          5    1    5    5  501    0  0.14145592567E+03 -0.72221392389E+02  0.77180767078E+03  0.78799421260E+03  0.47000000000E+01 0. -1.
        -11    1    6    6    0    0 -0.22053922238E+02  0.14632240852E+02  0.24010448017E+03  0.24155876999E+03  0.00000000000E+00 0.  1.
         12    1    6    6    0    0  0.36854560046E+02 -0.45019354088E+02  0.53987305217E+03  0.54299899935E+03  0.00000000000E+00 0. -1.
         -5    1    3    3    0  503 -0.10342105421E+03 -0.99063944003E+01  0.38538264524E+03  0.39916904233E+03  0.47000000000E+01 0.  1.
         13    1    4    4    0    0 -0.65069062605E+01  0.77209832600E+02  0.24677896272E+03  0.25865721432E+03  0.00000000000E+00 0. -1.
        -14    1    4    4    0    0 -0.46328603008E+02  0.35305067425E+02  0.44481433020E+03  0.44861183176E+03  0.00000000000E+00 0.  1.
</event>
<event>
12    1  0.1596842E-001  0.1760422E+03  0.7818608E-02  0.1171733E+00
         21   -1    0    0  501  502  0.00000000000E+00  0.00000000000E+00  0.10073290771E+03  0.10073290771E+03  0.00000000000E+00 0.  1.
         21   -1    0    0  502  503 -0.00000000000E+00 -0.00000000000E+00 -0.52297231407E+03  0.52297231407E+03  0.00000000000E+00 0.  1.
         -6    2    1    2    0  503 -0.44257794639E+02 -0.40560074037E+01 -0.41142565809E+03  0.44750634818E+03  0.17033982490E+03 0.  0.
        -24    2    3    3    0    0 -0.33635357929E+02 -0.64779323570E+02 -0.19990978738E+03  0.22714026447E+03  0.79379333516E+02 0.  0.
          6    2    1    2  501    0  0.44257794639E+02  0.40560074037E+01 -0.10813748274E+02  0.17619887360E+03  0.17015846239E+03 0.  0.
         24    2    5    5    0    0  0.36017819873E+01 -0.34592250575E+02 -0.56440844845E+02  0.10373839367E+03  0.79790279618E+02 0.  0.
          5    1    5    5  501    0  0.40656012652E+02  0.38648257979E+02  0.45627096571E+02  0.72460479926E+02  0.47000000000E+01 0. -1.
        -13    1    6    6    0    0 -0.37488863420E+02 -0.10586986093E+02 -0.30943916160E+02  0.49749624143E+02  0.00000000000E+00 0.  1.
         14    1    6    6    0    0  0.41090645407E+02 -0.24005264482E+02 -0.25496928685E+02  0.53988769529E+02  0.00000000000E+00 0. -1.
         -5    1    3    3    0  503 -0.10622436710E+02  0.60723316166E+02 -0.21151587071E+03  0.22036608371E+03  0.47000000000E+01 0.  1.
         13    1    4    4    0    0 -0.14194043478E+02 -0.37473434325E+01  0.24513074940E+01  0.14883627296E+02  0.00000000000E+00 0. -1.
        -14    1    4    4    0    0 -0.19441314451E+02 -0.61031980138E+02 -0.20236109487E+03  0.21225663718E+03  0.00000000000E+00 0.  1.
</event>
<event>
12    1  0.1596842E-001  0.2646821E+03  0.7818608E-02  0.1106069E+00
         21   -1    0    0  501  502  0.00000000000E+00  0.00000000000E+00  0.25163774818E+03  0.25163774818E+03  0.00000000000E+00 0.  1.
         21   -1    0    0  502  503 -0.00000000000E+00 -0.00000000000E+00 -0.38377940540E+03  0.38377940540E+03  0.00000000000E+00 0. -1.
         -6    2    1    2    0  503  0.18503762215E+03 -0.21130113019E+02 -0.24060259638E+03  0.34937451170E+03  0.17171935462E+03 0.  0.
        -24    2    3    3    0    0  0.18014572092E+03 -0.60022115914E+02 -0.22992895868E+03  0.30847787212E+03  0.78969211623E+02 0.  0.
          6    2    1    2  501    0 -0.18503762215E+03  0.21130113019E+02  0.10846093915E+03  0.28604264188E+03  0.18807236470E+03 0.  0.
         24    2    5    5    0    0 -0.17519021034E+03 -0.43359895308E+02  0.64777720214E+02  0.20738994765E+03  0.79011056369E+02 0.  0.
          5    1    5    5  501    0 -0.98474118112E+01  0.64490008327E+02  0.43683218940E+02  0.78652694234E+02  0.47000000000E+01 0. -1.
        -11    1    6    6    0    0 -0.89324032909E+02  0.35762823423E+01  0.63271969922E+02  0.10952129851E+03  0.00000000000E+00 0.  1.
         12    1    6    6    0    0 -0.85866177429E+02 -0.46936177650E+02  0.15057502925E+01  0.97868649130E+02  0.00000000000E+00 0. -1.
         -5    1    3    3    0  503  0.48919012343E+01  0.38892002895E+02 -0.10673637695E+02  0.40896639575E+02  0.47000000000E+01 0.  1.
         13    1    4    4    0    0  0.10720823155E+03  0.52351468610E+01 -0.11013525209E+03  0.15378811862E+03  0.00000000000E+00 0. -1.
        -14    1    4    4    0    0  0.72937489363E+02 -0.65257262775E+02 -0.11979370660E+03  0.15468975351E+03  0.00000000000E+00 0.  1.
</event>
<event>
12    1  0.1596842E-001  0.1919715E+03  0.7818608E-02  0.1157056E+00
         21   -1    0    0  501  502  0.00000000000E+00  0.00000000000E+00  0.43154481292E+03  0.43154481292E+03  0.00000000000E+00 0.  1.
         21   -1    0    0  502  503 -0.00000000000E+00 -0.00000000000E+00 -0.11878466112E+03  0.11878466112E+03  0.00000000000E+00 0.  1.
         -6    2    1    2    0  503  0.33346122958E+02  0.78523063339E+02  0.84736736443E+01  0.19054716782E+03  0.17017222049E+03 0.  0.
        -24    2    3    3    0    0 -0.14131621718E+02  0.10384071148E+03  0.26138573948E+02  0.13372060493E+03  0.78837675269E+02 0.  0.
          6    2    1    2  501    0 -0.33346122958E+02 -0.78523063339E+02  0.30428647816E+03  0.35978230622E+03  0.17197445068E+03 0.  0.
         24    2    5    5    0    0  0.34169063350E+01  0.19825148375E+01  0.56448925447E+02  0.96574762682E+02  0.78259810816E+02 0.  0.
          5    1    5    5  501    0 -0.36763029293E+02 -0.80505578176E+02  0.24783755271E+03  0.26320754354E+03  0.47000000000E+01 0. -1.
        -11    1    6    6    0    0 -0.36352709493E+02 -0.75725005188E-01  0.38318772703E+02  0.52819064392E+02  0.00000000000E+00 0.  1.
         12    1    6    6    0    0  0.39769615828E+02  0.20582398427E+01  0.18130152745E+02  0.43755698291E+02  0.00000000000E+00 0. -1.
         -5    1    3    3    0  503  0.47477744676E+02 -0.25317648146E+02 -0.17664900304E+02  0.56826562890E+02  0.47000000000E+01 0.  1.
         11    1    4    4    0    0 -0.20384186353E+02  0.65265429378E+02 -0.21898314224E+02  0.71795734491E+02  0.00000000000E+00 0. -1.
        -12    1    4    4    0    0  0.62525646351E+01  0.38575282106E+02  0.48036888172E+02  0.61924870443E+02  0.00000000000E+00 0.  1.
</event>
<event>
12    1  0.1596842E-001  0.3044905E+03  0.7818608E-02  0.1083081E+00
         21   -1    0    0  503  502  0.00000000000E+00  0.00000000000E+00  0.48625505358E+03  0.48625505358E+03  0.00000000000E+00 0. -1.
         21   -1    0    0  501  503 -0.00000000000E+00 -0.00000000000E+00 -0.20182411128E+03  0.20182411128E+03  0.00000000000E+00 0. -1.
          6    2    1    2  501    0  0.24819786344E+03  0.32781808073E+02  0.22414971474E+03  0.37767891030E+03  0.17239906704E+03 0.  0.
         24    2    3    3    0    0  0.21450721305E+03  0.76384412447E+02  0.14772144254E+03  0.28334112454E+03  0.81318173587E+02 0.  0.
         -6    2    1    2    0  502 -0.24819786344E+03 -0.32781808073E+02  0.60281227569E+02  0.31040025456E+03  0.17331377694E+03 0.  0.
        -24    2    5    5    0    0 -0.18155687953E+03 -0.88224472864E+02  0.50031371345E+02  0.22298138149E+03  0.80443149224E+02 0.  0.
          5    1    3    3  501    0  0.33690650390E+02 -0.43602604375E+02  0.76428272198E+02  0.94337785765E+02  0.47000000000E+01 0. -1.
        -11    1    4    4    0    0  0.46329838465E+02  0.36826961005E+02  0.75883244188E+02  0.96233807664E+02  0.00000000000E+00 0.  1.
         12    1    4    4    0    0  0.16817737458E+03  0.39557451442E+02  0.71838198349E+02  0.18710731687E+03  0.00000000000E+00 0. -1.
         -5    1    5    5    0  502 -0.66640983910E+02  0.55442664791E+02  0.10249856224E+02  0.87418873066E+02  0.47000000000E+01 0.  1.
         13    1    6    6    0    0 -0.16586438975E+03 -0.53947405770E+02  0.21570447265E+02  0.17574584652E+03  0.00000000000E+00 0. -1.
        -14    1    6    6    0    0 -0.15692489781E+02 -0.34277067094E+02  0.28460924080E+02  0.47235534966E+02  0.00000000000E+00 0.  1.
</event>
<event>
12    1  0.1596842E-001  0.1855223E+03  0.7818608E-02  0.1163432E+00
         21   -1    0    0  503  502  0.00000000000E+00  0.00000000000E+00  0.98579886978E+03  0.98579886978E+03  0.00000000000E+00 0.  1.
         21   -1    0    0  501  503 -0.00000000000E+00 -0.00000000000E+00 -0.53199163912E+02  0.53199163912E+02  0.00000000000E+00 0.  1.
          6    2    1    2  501    0 -0.62195882312E+02  0.25273248112E+02  0.15302373189E+03  0.23765090903E+03  0.16898114449E+03 0.  0.
         24    2    3    3    0    0 -0.23762107079E+02  0.77684164604E+02  0.75783152520E+02  0.13659519990E+03  0.79471348711E+02 0.  0.
         -6    2    1    2    0  502  0.62195882312E+02 -0.25273248112E+02  0.77957597398E+03  0.80134712466E+03  0.17294927048E+03 0.  0.
        -24    2    5    5    0    0 -0.10683957342E+02 -0.73830178493E+01  0.47153492992E+03  0.48426211053E+03  0.10952600449E+03 0.  0.
          5    1    3    3  501    0 -0.38433775233E+02 -0.52410916493E+02  0.77240579369E+02  0.10105570913E+03  0.47000000000E+01 0. -1.
        -11    1    4    4    0    0 -0.30053054488E+02  0.21693603739E+02 -0.57296784404E+01  0.37505036225E+02  0.00000000000E+00 0.  1.
         12    1    4    4    0    0  0.62909474087E+01  0.55990560866E+02  0.81512830961E+02  0.99090163672E+02  0.00000000000E+00 0. -1.
         -5    1    5    5    0  502  0.72879839654E+02 -0.17890230263E+02  0.30804104405E+03  0.31708501413E+03  0.47000000000E+01 0.  1.
         13    1    6    6    0    0  0.19642643189E+02  0.33155212068E+02  0.73215200425E+02  0.82737942275E+02  0.00000000000E+00 0. -1.
        -14    1    6    6    0    0 -0.30326600531E+02 -0.40538229917E+02  0.39831972950E+03  0.40152416826E+03  0.00000000000E+00 0.  1.
</event>
<event>
12    1  0.1596842E-001  0.1778622E+03  0.7818608E-02  0.1170682E+00
         21   -1    0    0  503  502  0.00000000000E+00  0.00000000000E+00  0.21191726613E+03  0.21191726613E+03  0.00000000000E+00 0.  1.
         21   -1    0    0  501  503 -0.00000000000E+00 -0.00000000000E+00 -0.32156238828E+03  0.32156238828E+03  0.00000000000E+00 0.  1.
          6    2    1    2  501    0  0.87032269166E+01  0.27586264731E+02 -0.25179686299E+03  0.30828012518E+03  0.17549423698E+03 0.  0.
         24    2    3    3    0    0  0.13890768714E+02 -0.36403576705E+02 -0.87782549003E+02  0.13208592667E+03  0.90679337576E+02 0.  0.
         -6    2    1    2    0  502 -0.87032269166E+01 -0.27586264731E+02  0.14215174084E+03  0.22519952923E+03  0.17225261212E+03 0.  0.
        -24    2    5    5    0    0 -0.34507044242E+02 -0.29900506248E+02  0.16593477255E+03  0.18971833281E+03  0.79836837907E+02 0.  0.
          5    1    3    3  501    0 -0.51875417970E+01  0.63989841436E+02 -0.16401431398E+03  0.17619419851E+03  0.47000000000E+01 0. -1.
        -11    1    4    4    0    0 -0.37947694244E+02 -0.21031485017E+02 -0.49576037688E+02  0.65879696215E+02  0.00000000000E+00 0.  1.
         12    1    4    4    0    0  0.51838462958E+02 -0.15372091688E+02 -0.38206511315E+02  0.66206230458E+02  0.00000000000E+00 0. -1.
         -5    1    5    5    0  502  0.25803817326E+02  0.23142415171E+01 -0.23783031710E+02  0.35481196424E+02  0.47000000000E+01 0.  1.
         11    1    6    6    0    0 -0.43803709197E+01 -0.36848097832E+02  0.23401194303E+02  0.43870102097E+02  0.00000000000E+00 0. -1.
        -12    1    6    6    0    0 -0.30126673322E+02  0.69475915845E+01  0.14253357824E+03  0.14584823071E+03  0.00000000000E+00 0.  1.
</event>
<event>
12    1  0.1596842E-001  0.1833691E+03  0.7818608E-02  0.1164814E+00
         21   -1    0    0  503  502  0.00000000000E+00  0.00000000000E+00  0.80316611601E+02  0.80316611601E+02  0.00000000000E+00 0.  1.
         21   -1    0    0  501  503 -0.00000000000E+00 -0.00000000000E+00 -0.14778584526E+04  0.14778584526E+04  0.00000000000E+00 0.  1.
          6    2    1    2  501    0 -0.49510310566E+02  0.36957874480E+02 -0.13585088483E+04  0.13706975960E+04  0.17160551695E+03 0.  0.
         24    2    3    3    0    0 -0.22619769938E+02  0.19254542123E+02 -0.31674128334E+03  0.32842207651E+03  0.81569776130E+02 0.  0.
         -6    2    1    2    0  502  0.49510310566E+02 -0.36957874480E+02 -0.39032992669E+02  0.18747746817E+03  0.17264724503E+03 0.  0.
        -24    2    5    5    0    0  0.54973577442E+02 -0.14267907763E+02 -0.88911281779E+02  0.13220889121E+03  0.79676266716E+02 0.  0.
          5    1    3    3  501    0 -0.26890540628E+02  0.17703332357E+02 -0.10417675650E+04  0.10422755195E+04  0.47000000000E+01 0. -1.
        -11    1    4    4    0    0  0.30852220562E+02  0.35131556535E+01 -0.11015243490E+03  0.11444544854E+03  0.00000000000E+00 0.  1.
         12    1    4    4    0    0 -0.53471990500E+02  0.15741386470E+02 -0.20658884844E+03  0.21397662796E+03  0.00000000000E+00 0. -1.
         -5    1    5    5    0  502 -0.54632668766E+01 -0.22689966717E+02  0.49878289110E+02  0.55268576959E+02  0.47000000000E+01 0.  1.
         13    1    6    6    0    0  0.56590334829E+02 -0.41585105788E+02 -0.59591173908E+02  0.92102633117E+02  0.00000000000E+00 0. -1.
        -14    1    6    6    0    0 -0.16167573863E+01  0.27317198025E+02 -0.29320107871E+02  0.40106258090E+02  0.00000000000E+00 0.  1.
</event>
<event>
12    1  0.1596842E-001  0.2043241E+03  0.7818608E-02  0.1146390E+00
         21   -1    0    0  501  502  0.00000000000E+00  0.00000000000E+00  0.53623626402E+03  0.53623626402E+03  0.00000000000E+00 0.  1.
         21   -1    0    0  502  503 -0.00000000000E+00 -0.00000000000E+00 -0.85711397047E+02  0.85711397047E+02  0.00000000000E+00 0. -1.
         -6    2    1    2    0  503  0.42031070422E+02 -0.10113252448E+03  0.12899314015E+03  0.24163523816E+03  0.17249336140E+03 0.  0.
        -24    2    3    3    0    0  0.10920691012E+02  0.18281396101E+02  0.30940742760E+02  0.83952319714E+02  0.75081232590E+02 0.  0.
          6    2    1    2  501    0 -0.42031070422E+02  0.10113252448E+03  0.32153172682E+03  0.38031242291E+03  0.17105697670E+03 0.  0.
         24    2    5    5    0    0 -0.89845108100E+02  0.81239192667E+02  0.27307831419E+03  0.30923675868E+03  0.79897793242E+02 0.  0.
          5    1    5    5  501    0  0.47814037678E+02  0.19893331810E+02  0.48453412626E+02  0.71075664222E+02  0.47000000000E+01 0. -1.
        -13    1    6    6    0    0 -0.56356528011E+02  0.54763216149E+01  0.70814179269E+02  0.90668055749E+02  0.00000000000E+00 0.  1.
         14    1    6    6    0    0 -0.33488580089E+02  0.75762871052E+02  0.20226413492E+03  0.21856870293E+03  0.00000000000E+00 0. -1.
         -5    1    3    3    0  503  0.31110379410E+02 -0.11941392058E+03  0.98052397394E+02  0.15768291844E+03  0.47000000000E+01 0.  1.
         13    1    4    4    0    0 -0.30577574360E+02  0.19129668692E+02  0.98231148233E+01  0.37382159686E+02  0.00000000000E+00 0. -1.
        -14    1    4    4    0    0  0.41498265372E+02 -0.84827259095E+00  0.21117627937E+02  0.46570160027E+02  0.00000000000E+00 0.  1.
</event>
<event>
12    1  0.1596842E-001  0.2308967E+03  0.7818608E-02  0.1126182E+00
         21   -1    0    0  503  502  0.00000000000E+00  0.00000000000E+00  0.72339458003E+03  0.72339458003E+03  0.00000000000E+00 0.  1.
         21   -1    0    0  501  503 -0.00000000000E+00 -0.00000000000E+00 -0.76785437847E+02  0.76785437847E+02  0.00000000000E+00 0. -1.
          6    2    1    2  501    0  0.23995684108E+02 -0.15181905331E+03  0.23846836496E+03  0.33125337280E+03  0.17098777179E+03 0.  0.
         24    2    3    3    0    0 -0.21920821063E+02 -0.46459300920E+02  0.17739788931E+03  0.20102013639E+03  0.79373138181E+02 0.  0.
         -6    2    1    2    0  502 -0.23995684108E+02  0.15181905331E+03  0.40814077722E+03  0.46892664507E+03  0.17230347248E+03 0.  0.
        -24    2    5    5    0    0 -0.29988200009E+01  0.17274371273E+01  0.13800843130E+03  0.15914940920E+03  0.79184786295E+02 0.  0.
          5    1    3    3  501    0  0.45916505172E+02 -0.10535975239E+03  0.61070475656E+02  0.13023323641E+03  0.47000000000E+01 0. -1.
        -11    1    4    4    0    0 -0.82066736603E+01 -0.14744847101E+02 -0.31751866423E+01  0.17170958588E+02  0.00000000000E+00 0.  1.
         12    1    4    4    0    0 -0.13714147403E+02 -0.31714453819E+02  0.18057307595E+03  0.18384917780E+03  0.00000000000E+00 0. -1.
         -5    1    5    5    0  502 -0.20996864107E+02  0.15009161618E+03  0.27013234592E+03  0.30977723587E+03  0.47000000000E+01 0.  1.
         13    1    6    6    0    0 -0.21438746437E+02  0.31489557681E+02  0.40760601400E+02  0.55791027220E+02  0.00000000000E+00 0. -1.
        -14    1    6    6    0    0  0.18439926436E+02 -0.29762120553E+02  0.97247829896E+02  0.10335838198E+03  0.00000000000E+00 0.  1.
</event>
<event>
12    1  0.1596842E-001  0.3377061E+03  0.7818608E-02  0.1067881E+00
         21   -1    0    0  501  502  0.00000000000E+00  0.00000000000E+00  0.24514869695E+03  0.24514869695E+03  0.00000000000E+00 0. -1.
         21   -1    0    0  502  503 -0.00000000000E+00 -0.00000000000E+00 -0.58236638852E+03  0.58236638852E+03  0.00000000000E+00 0. -1.
         -6    2    1    2    0  503  0.18099065228E+03  0.22638294257E+03 -0.35543102948E+03  0.49028220480E+03  0.17331638909E+03 0.  0.
        -24    2    3    3    0    0  0.17457871107E+02  0.41002864983E+02 -0.88401577735E+02  0.12636523380E+03  0.78532293779E+02 0.  0.
          6    2    1    2  501    0 -0.18099065228E+03 -0.22638294257E+03  0.18213337909E+02  0.33723288068E+03  0.17142764430E+03 0.  0.
         24    2    5    5    0    0 -0.35797971074E+02 -0.86875990914E+02  0.50344056561E+02  0.13327803931E+03  0.79997369958E+02 0.  0.
          5    1    5    5  501    0 -0.14519268121E+03 -0.13950695165E+03 -0.32130718652E+02  0.20395484137E+03  0.47000000000E+01 0. -1.
        -11    1    6    6    0    0  0.99830772194E+01  0.34199321320E+01 -0.10725403601E+02  0.15046330083E+02  0.00000000000E+00 0.  1.
         12    1    6    6    0    0 -0.45781048294E+02 -0.90295923046E+02  0.61069460162E+02  0.11823170922E+03  0.00000000000E+00 0. -1.
         -5    1    3    3    0  503  0.16353278118E+03  0.18538007759E+03 -0.26702945174E+03  0.36391697100E+03  0.47000000000E+01 0.  1.
         13    1    4    4    0    0  0.26809353446E+02  0.56735863743E+02 -0.87970340280E+02  0.10805776435E+03  0.00000000000E+00 0. -1.
        -14    1    4    4    0    0 -0.93514823391E+01 -0.15732998760E+02 -0.43123745517E+00  0.18307469450E+02  0.00000000000E+00 0.  1.
</event>
<event>
12    1  0.1596842E-001  0.1871554E+03  0.7818608E-02  0.1161676E+00
         21   -1    0    0  501  502  0.00000000000E+00  0.00000000000E+00  0.11639852706E+03  0.11639852706E+03  0.00000000000E+00 0. -1.
         21   -1    0    0  502  503 -0.00000000000E+00 -0.00000000000E+00 -0.31531596179E+03  0.31531596179E+03  0.00000000000E+00 0.  1.
         -6    2    1    2    0  503 -0.63512278879E+02  0.21558151304E+02 -0.15270760914E+03  0.24155076937E+03  0.17472434530E+03 0.  0.
        -24    2    3    3    0    0 -0.46524547959E+02  0.76119455031E+02 -0.13865918368E+03  0.18251715925E+03  0.78277961171E+02 0.  0.
          6    2    1    2  501    0  0.63512278879E+02 -0.21558151304E+02 -0.46209825589E+02  0.19016371947E+03  0.17183808881E+03 0.  0.
         24    2    5    5    0    0  0.62497022344E+01 -0.61792180755E+01  0.37146004220E+02  0.87763530826E+02  0.79027654650E+02 0.  0.
          5    1    5    5  501    0  0.57262576645E+02 -0.15378933229E+02 -0.83355829809E+02  0.10240018864E+03  0.47000000000E+01 0. -1.
        -11    1    6    6    0    0  0.24991239369E+02  0.20833531207E+02 -0.64406618335E+01  0.33167456831E+02  0.00000000000E+00 0.  1.
         12    1    6    6    0    0 -0.18741537135E+02 -0.27012749283E+02  0.43586666054E+02  0.54596073995E+02  0.00000000000E+00 0. -1.
         -5    1    3    3    0  503 -0.16987730920E+02 -0.54561303727E+02 -0.14048425461E+02  0.59033610123E+02  0.47000000000E+01 0.  1.
         11    1    4    4    0    0  0.32340917543E+01  0.11721571704E+01  0.89870369160E+01  0.96228963642E+01  0.00000000000E+00 0. -1.
        -12    1    4    4    0    0 -0.49758639714E+02  0.74947297861E+02 -0.14764622059E+03  0.17289426289E+03  0.00000000000E+00 0.  1.
</event>
<event>
12    1  0.1596842E-001  0.2367377E+03  0.7818608E-02  0.1122028E+00
         21   -1    0    0  501  502  0.00000000000E+00  0.00000000000E+00  0.33190355187E+03  0.33190355187E+03  0.00000000000E+00 0. -1.
         21   -1    0    0  502  503 -0.00000000000E+00 -0.00000000000E+00 -0.17034821687E+03  0.17034821687E+03  0.00000000000E+00 0. -1.
         -6    2    1    2    0  503  0.10155231544E+02 -0.16212973829E+03  0.10560046404E+03  0.25899120800E+03  0.17185984711E+03 0.  0.
        -24    2    3    3    0    0 -0.33626804735E+02 -0.13196743140E+03  0.12684544185E+03  0.20154496757E+03  0.77359181020E+02 0.  0.
          6    2    1    2  501    0 -0.10155231544E+02  0.16212973829E+03  0.55954870960E+02  0.24326056074E+03  0.17220793263E+03 0.  0.
         24    2    5    5    0    0 -0.49739728733E+02  0.28331273912E+02  0.17402751599E+02  0.98425076844E+02  0.78153299947E+02 0.  0.
          5    1    5    5  501    0  0.39584497188E+02  0.13379846438E+03  0.38552119361E+02  0.14483548389E+03  0.47000000000E+01 0. -1.
        -13    1    6    6    0    0  0.35297883948E+01  0.36453169765E+02 -0.10011308450E+02  0.37967345034E+02  0.00000000000E+00 0.  1.
         14    1    6    6    0    0 -0.53269517127E+02 -0.81218958527E+01  0.27414060049E+02  0.60457731810E+02  0.00000000000E+00 0. -1.
         -5    1    3    3    0  503  0.43782036280E+02 -0.30162306887E+02 -0.21244977805E+02  0.57446240429E+02  0.47000000000E+01 0.  1.
         13    1    4    4    0    0 -0.15116189335E+02 -0.11098992985E+02 -0.72166617825E+01  0.20093955125E+02  0.00000000000E+00 0. -1.
        -14    1    4    4    0    0 -0.18510615401E+02 -0.12086843842E+03  0.13406210363E+03  0.18145101245E+03  0.00000000000E+00 0.  1.
</event>
<event>
12    1  0.1596842E-001  0.2026409E+03  0.7818608E-02  0.1147949E+00
         21   -1    0    0  503  502  0.00000000000E+00  0.00000000000E+00  0.20270224211E+03  0.20270224211E+03  0.00000000000E+00 0.  1.
         21   -1    0    0  501  503 -0.00000000000E+00 -0.00000000000E+00 -0.20074477746E+03  0.20074477746E+03  0.00000000000E+00 0.  1.
          6    2    1    2  501    0  0.43278150486E+01  0.10188683382E+03 -0.49087398381E+01  0.20270032253E+03  0.17511044554E+03 0.  0.
         24    2    3    3    0    0 -0.62823140487E+02  0.53972176987E+02  0.22781926700E+02  0.11555717488E+03  0.77296194035E+02 0.  0.
         -6    2    1    2    0  502 -0.43278150486E+01 -0.10188683382E+03  0.68662044917E+01  0.20074669704E+03  0.17277857135E+03 0.  0.
        -24    2    5    5    0    0 -0.31764024948E+02 -0.11351726086E+02  0.47201125029E+02  0.97798422837E+02  0.78732270000E+02 0.  0.
          5    1    3    3  501    0  0.67150955535E+02  0.47914656834E+02 -0.27690666538E+02  0.87143147649E+02  0.47000000000E+01 0. -1.
        -13    1    4    4    0    0 -0.66581930082E+02  0.36851335251E+02 -0.11586600497E+02  0.76976773343E+02  0.00000000000E+00 0.  1.
         14    1    4    4    0    0  0.37587895950E+01  0.17120841736E+02  0.34368527197E+02  0.38580401536E+02  0.00000000000E+00 0. -1.
         -5    1    5    5    0  502  0.27436209900E+02 -0.90535107735E+02 -0.40334920537E+02  0.10294827420E+03  0.47000000000E+01 0.  1.
         11    1    6    6    0    0 -0.53802457856E+02  0.51226309227E+01  0.16361036712E+02  0.56467949681E+02  0.00000000000E+00 0. -1.
        -12    1    6    6    0    0  0.22038432908E+02 -0.16474357009E+02  0.30840088317E+02  0.41330473156E+02  0.00000000000E+00 0.  1.
</event>
<event>
12    1  0.1596842E-001  0.2808119E+03  0.7818608E-02  0.1095406E+00
         21   -1    0    0  501  502  0.00000000000E+00  0.00000000000E+00  0.16847773228E+03  0.16847773228E+03  0.00000000000E+00 0.  1.
         21   -1    0    0  502  503 -0.00000000000E+00 -0.00000000000E+00 -0.47084408565E+03  0.47084408565E+03  0.00000000000E+00 0.  1.
         -6    2    1    2    0  503  0.58219644278E+02  0.21394609097E+03 -0.11875344456E+03  0.30380872235E+03  0.17039630971E+03 0.  0.
        -24    2    3    3    0    0 -0.21316989125E+02  0.51854420367E+02 -0.25806153601E+02  0.10068050022E+03  0.79544394039E+02 0.  0.
          6    2    1    2  501    0 -0.58219644278E+02 -0.21394609097E+03 -0.18361290881E+03  0.33551309558E+03  0.17231622152E+03 0.  0.
         24    2    5    5    0    0 -0.13962972135E+02 -0.95913490563E+02 -0.16742584062E+03  0.20833424920E+03  0.77313550046E+02 0.  0.
          5    1    5    5  501    0 -0.44256672143E+02 -0.11803260041E+03 -0.16187068190E+02  0.12717884637E+03  0.47000000000E+01 0. -1.
        -11    1    6    6    0    0  0.20775637135E+01 -0.28873098519E+02 -0.18783658657E+01  0.29008625397E+02  0.00000000000E+00 0.  1.
         12    1    6    6    0    0 -0.16040535848E+02 -0.67040392044E+02 -0.16554747476E+03  0.17932562381E+03  0.00000000000E+00 0. -1.
         -5    1    3    3    0  503  0.79536633403E+02  0.16209167060E+03 -0.92947290959E+02  0.20312822214E+03  0.47000000000E+01 0.  1.
         11    1    4    4    0    0  0.10116973451E+02  0.55936641236E+02  0.42441052196E+01  0.57002398315E+02  0.00000000000E+00 0. -1.
        -12    1    4    4    0    0 -0.31433962576E+02 -0.40822208693E+01 -0.30050258820E+02  0.43678101900E+02  0.00000000000E+00 0.  1.
</event>
<event>
12    1  0.1596842E-001  0.1856807E+03  0.7818608E-02  0.1164558E+00
         21   -1    0    0  501  502  0.00000000000E+00  0.00000000000E+00  0.26541882734E+03  0.26541882734E+03  0.00000000000E+00 0. -1.
         21   -1    0    0  502  503 -0.00000000000E+00 -0.00000000000E+00 -0.14141565715E+03  0.14141565715E+03  0.00000000000E+00 0. -1.
         -6    2    1    2    0  503  0.48589941935E+02  0.41102345931E+02 -0.11336660537E+02  0.17706458373E+03  0.16484223258E+03 0.  0.
        -24    2    3    3    0    0  0.61884612835E+02  0.78659108241E+02  0.14728826292E+02  0.12922361517E+03  0.80404252236E+02 0.  0.
          6    2    1    2  501    0 -0.48589941935E+02 -0.41102345931E+02  0.13533983073E+03  0.22976990076E+03  0.17443323140E+03 0.  0.
         24    2    5    5    0    0  0.61734928404E+01  0.24992998588E+02  0.48940369755E+02  0.10789051279E+03  0.92641464616E+02 0.  0.
          5    1    5    5  501    0 -0.54763434775E+02 -0.66095344519E+02  0.86399460971E+02  0.12187938797E+03  0.47000000000E+01 0. -1.
        -11    1    6    6    0    0  0.24310106399E+02 -0.17844430844E+02  0.53225625990E+02  0.61174931527E+02  0.00000000000E+00 0.  1.
         12    1    6    6    0    0 -0.18136613559E+02  0.42837429432E+02 -0.42852562358E+01  0.46715581263E+02  0.00000000000E+00 0. -1.
         -5    1    3    3    0  503 -0.13294670900E+02 -0.37556762310E+02 -0.26065486828E+02  0.47840968564E+02  0.47000000000E+01 0.  1.
         13    1    4    4    0    0  0.46594588715E+02  0.20400595357E+02  0.39193179191E+02  0.64213279651E+02  0.00000000000E+00 0. -1.
        -14    1    4    4    0    0  0.15290024120E+02  0.58258512884E+02 -0.24464352899E+02  0.65010335515E+02  0.00000000000E+00 0.  1.
</event>
<event>
12    1  0.1596842E-001  0.1853354E+03  0.7818608E-02  0.1163090E+00
         21   -1    0    0  503  502  0.00000000000E+00  0.00000000000E+00  0.12794727232E+04  0.12794727232E+04  0.00000000000E+00 0. -1.
         21   -1    0    0  501  503 -0.00000000000E+00 -0.00000000000E+00 -0.27784842012E+02  0.27784842012E+02  0.00000000000E+00 0. -1.
          6    2    1    2  501    0  0.65658681761E+02 -0.11296141493E+02  0.49003284728E+03  0.52337773647E+03  0.17132833484E+03 0.  0.
         24    2    3    3    0    0 -0.26559931446E+02  0.26436749781E+01  0.16602505623E+03  0.18618086554E+03  0.79916058597E+02 0.  0.
         -6    2    1    2    0  502 -0.65658681761E+02  0.11296141493E+02  0.76165503390E+03  0.78387982873E+03  0.17294661004E+03 0.  0.
        -24    2    5    5    0    0 -0.32282846192E+02  0.66678562521E+02  0.59641930553E+03  0.60638026566E+03  0.80578072210E+02 0.  0.
          5    1    3    3  501    0  0.92218613207E+02 -0.13939816471E+02  0.32400779105E+03  0.33719687093E+03  0.47000000000E+01 0. -1.
        -13    1    4    4    0    0 -0.13803237376E+02  0.35116902313E+02  0.13260153598E+03  0.13786549073E+03  0.00000000000E+00 0.  1.
         14    1    4    4    0    0 -0.12756694070E+02 -0.32473227335E+02  0.33423520246E+02  0.48315374807E+02  0.00000000000E+00 0. -1.
         -5    1    5    5    0  502 -0.33375835569E+02 -0.55382421028E+02  0.16523572837E+03  0.17749956307E+03  0.47000000000E+01 0.  1.
         11    1    6    6    0    0 -0.40169609899E+02  0.23460882551E+02  0.13333817977E+03  0.14121997293E+03  0.00000000000E+00 0. -1.
        -12    1    6    6    0    0  0.78867637067E+01  0.43217679970E+02  0.46308112576E+03  0.46516029274E+03  0.00000000000E+00 0.  1.
</event>
<event>
12    1  0.1596842E-001  0.1888442E+03  0.7818608E-02  0.1160092E+00
         21   -1    0    0  501  502  0.00000000000E+00  0.00000000000E+00  0.14941255592E+03  0.14941255592E+03  0.00000000000E+00 0.  1.
         21   -1    0    0  502  503 -0.00000000000E+00 -0.00000000000E+00 -0.29722227331E+03  0.29722227331E+03  0.00000000000E+00 0.  1.
         -6    2    1    2    0  503  0.64824702341E+02  0.41316688162E+02 -0.17609232058E+03  0.25820658275E+03  0.17249006712E+03 0.  0.
        -24    2    3    3    0    0  0.10696294703E+03  0.42226918664E+02 -0.15880171635E+03  0.21240794544E+03  0.81700461903E+02 0.  0.
          6    2    1    2  501    0 -0.64824702341E+02 -0.41316688162E+02  0.28282603198E+02  0.18842824648E+03  0.16969380564E+03 0.  0.
         24    2    5    5    0    0 -0.56516218961E+02  0.26922326190E+02  0.55647642307E+02  0.11428966448E+03  0.77759711023E+02 0.  0.
          5    1    5    5  501    0 -0.83084833799E+01 -0.68239014352E+02 -0.27365039110E+02  0.74138582002E+02  0.47000000000E+01 0. -1.
        -11    1    6    6    0    0 -0.60690530272E+02 -0.85889566432E+01  0.47681642168E+02  0.77657257489E+02  0.00000000000E+00 0.  1.
         12    1    6    6    0    0  0.41743113107E+01  0.35511282833E+02  0.79660001397E+01  0.36632406986E+02  0.00000000000E+00 0. -1.
         -5    1    3    3    0  503 -0.42138244685E+02 -0.91023050237E+00 -0.17290604229E+02  0.45798637309E+02  0.47000000000E+01 0.  1.
         13    1    4    4    0    0  0.25613071654E+02  0.16595612745E+02  0.17895367770E+01  0.30571984624E+02  0.00000000000E+00 0. -1.
        -14    1    4    4    0    0  0.81349875372E+02  0.25631305920E+02 -0.16059125313E+03  0.18183596082E+03  0.00000000000E+00 0.  1.
</event>
<event>
12    1  0.1596842E-001  0.2833436E+03  0.7818608E-02  0.1093897E+00
         21   -1    0    0  503  502  0.00000000000E+00  0.00000000000E+00  0.50187697742E+03  0.50187697742E+03  0.00000000000E+00 0. -1.
         21   -1    0    0  501  503 -0.00000000000E+00 -0.00000000000E+00 -0.17288503592E+03  0.17288503592E+03  0.00000000000E+00 0.  1.
          6    2    1    2  501    0 -0.86336292636E+02  0.20850632244E+03  0.71932169422E+02  0.29218739242E+03  0.17108592393E+03 0.  0.
         24    2    3    3    0    0 -0.82132481953E+02  0.22459058205E+03  0.39611350401E+02  0.25553905312E+03  0.80897926138E+02 0.  0.
         -6    2    1    2    0  502  0.86336292636E+02 -0.20850632244E+03  0.25705977207E+03  0.38257462092E+03  0.17133234438E+03 0.  0.
        -24    2    5    5    0    0 -0.12296581561E+02 -0.11110222262E+03  0.95217364468E+02  0.16942899597E+03  0.84527678255E+02 0.  0.
          5    1    3    3  501    0 -0.42038106827E+01 -0.16084259604E+02  0.32320819021E+02  0.36648339300E+02  0.47000000000E+01 0. -1.
        -13    1    4    4    0    0 -0.60209011162E+02  0.13777184931E+03 -0.14277558760E+02  0.15102998435E+03  0.00000000000E+00 0.  1.
         14    1    4    4    0    0 -0.21923470792E+02  0.86818732736E+02  0.53888909162E+02  0.10450906877E+03  0.00000000000E+00 0. -1.
         -5    1    5    5    0  502  0.98632874196E+02 -0.97404099823E+02  0.16184240760E+03  0.21314562494E+03  0.47000000000E+01 0.  1.
         11    1    6    6    0    0 -0.43106856362E+00 -0.23073899608E+01  0.51542726281E+02  0.51596148122E+02  0.00000000000E+00 0. -1.
        -12    1    6    6    0    0 -0.11865512997E+02 -0.10879483266E+03  0.43674638187E+02  0.11783284785E+03  0.00000000000E+00 0.  1.
</event>
<event>
12    1  0.1596842E-001  0.2144683E+03  0.7818608E-02  0.1138102E+00
         21   -1    0    0  503  502  0.00000000000E+00  0.00000000000E+00  0.38433585627E+03  0.38433585627E+03  0.00000000000E+00 0. -1.
         21   -1    0    0  501  503 -0.00000000000E+00 -0.00000000000E+00 -0.12067233270E+03  0.12067233270E+03  0.00000000000E+00 0.  1.
          6    2    1    2  501    0  0.12759654868E+03  0.85871206941E+00  0.10808333514E+03  0.24016384311E+03  0.17238053133E+03 0.  0.
         24    2    3    3    0    0  0.12629024994E+03 -0.39692209626E+02  0.38186803688E+02  0.15920892494E+03  0.79778136549E+02 0.  0.
         -6    2    1    2    0  502 -0.12759654868E+03 -0.85871206941E+00  0.15558018842E+03  0.26484434585E+03  0.17220835019E+03 0.  0.
        -24    2    5    5    0    0 -0.62307187263E+02  0.39744291907E+01  0.16988665586E+03  0.19766678278E+03  0.79452498404E+02 0.  0.
          5    1    3    3  501    0  0.13062987481E+01  0.40550921695E+02  0.69896531456E+02  0.80954918173E+02  0.47000000000E+01 0. -1.
        -11    1    4    4    0    0  0.26868187582E+01  0.15875434976E+02 -0.51892904191E+01  0.16916771730E+02  0.00000000000E+00 0.  1.
         12    1    4    4    0    0  0.12360343118E+03 -0.55567644602E+02  0.43376094107E+02  0.14229215321E+03  0.00000000000E+00 0. -1.
         -5    1    5    5    0  502 -0.65289361421E+02 -0.48331412601E+01 -0.14306467442E+02  0.67177563069E+02  0.47000000000E+01 0.  1.
         13    1    6    6    0    0 -0.61799573250E+02  0.26944630957E+02  0.78692857488E+02  0.10362319340E+03  0.00000000000E+00 0. -1.
        -14    1    6    6    0    0 -0.50761401383E+00 -0.22970201766E+02  0.91193798376E+02  0.94043589380E+02  0.00000000000E+00 0.  1.
</event>
<event>
12    1  0.1596842E-001  0.1864610E+03  0.7818608E-02  0.1162029E+00
         21   -1    0    0  501  502  0.00000000000E+00  0.00000000000E+00  0.89008613450E+02  0.89008613450E+02  0.00000000000E+00 0.  1.
         21   -1    0    0  502  503 -0.00000000000E+00 -0.00000000000E+00 -0.41996683612E+03  0.41996683612E+03  0.00000000000E+00 0.  1.
         -6    2    1    2    0  503  0.56566264965E+01 -0.70230872897E+02 -0.95405263919E+02  0.20945134384E+03  0.17263640440E+03 0.  0.
        -24    2    3    3    0    0  0.60159597235E+02 -0.76392434249E+02 -0.92911287803E+02  0.15434373480E+03  0.75726480978E+02 0.  0.
          6    2    1    2  501    0 -0.56566264965E+01  0.70230872897E+02 -0.23555295875E+03  0.29952410572E+03  0.17107051354E+03 0.  0.
         24    2    5    5    0    0  0.33255432334E+02  0.33823298073E+02 -0.22776329448E+03  0.24546461353E+03  0.78273998945E+02 0.  0.
          5    1    5    5  501    0 -0.38912058830E+02  0.36407574824E+02 -0.77896642714E+01  0.54059492196E+02  0.47000000000E+01 0. -1.
        -11    1    6    6    0    0  0.71933300150E+01 -0.21132058104E+02 -0.11690762321E+03  0.11901974728E+03  0.00000000000E+00 0.  1.
         12    1    6    6    0    0  0.26062102319E+02  0.54955356177E+02 -0.11085567126E+03  0.12644486625E+03  0.00000000000E+00 0. -1.
         -5    1    3    3    0  503 -0.54502970738E+02  0.61615613522E+01 -0.24939761160E+01  0.55107609043E+02  0.47000000000E+01 0.  1.
         11    1    4    4    0    0  0.70403635901E-01 -0.34528926654E+02 -0.69251619536E+02  0.77382417518E+02  0.00000000000E+00 0. -1.
        -12    1    4    4    0    0  0.60089193599E+02 -0.41863507595E+02 -0.23659668267E+02  0.76961317284E+02  0.00000000000E+00 0.  1.
</event>
<event>
12    1  0.1596842E-001  0.2492872E+03  0.7818608E-02  0.1114412E+00
         21   -1    0    0  503  502  0.00000000000E+00  0.00000000000E+00  0.48692232973E+02  0.48692232973E+02  0.00000000000E+00 0. -1.
         21   -1    0    0  501  503 -0.00000000000E+00 -0.00000000000E+00 -0.12868543812E+04  0.12868543812E+04  0.00000000000E+00 0. -1.
          6    2    1    2  501    0 -0.17925784656E+03 -0.24659601564E+02 -0.71853467215E+03  0.75921612585E+03  0.16545567133E+03 0.  0.
         24    2    3    3    0    0 -0.14043641408E+03 -0.15787194973E+02 -0.30104476086E+03  0.33980494426E+03  0.69769837167E+02 0.  0.
         -6    2    1    2    0  502  0.17925784656E+03  0.24659601564E+02 -0.51962747606E+03  0.57633048831E+03  0.17147199879E+03 0.  0.
        -24    2    5    5    0    0  0.49286883032E+02  0.59628944375E+02 -0.19867158801E+03  0.22826429004E+03  0.81543720668E+02 0.  0.
          5    1    3    3  501    0 -0.38821432480E+02 -0.88724065912E+01 -0.41748991128E+03  0.41941118159E+03  0.47000000000E+01 0. -1.
        -11    1    4    4    0    0 -0.10447825280E+02  0.15246754240E+02 -0.14040170162E+02  0.23210922991E+02  0.00000000000E+00 0.  1.
         12    1    4    4    0    0 -0.12998858880E+03 -0.31033949213E+02 -0.28700459070E+03  0.31659402127E+03  0.00000000000E+00 0. -1.
         -5    1    5    5    0  502  0.12997096352E+03 -0.34969342811E+02 -0.32095588806E+03  0.34806619827E+03  0.47000000000E+01 0.  1.
         11    1    6    6    0    0  0.15491130254E+02 -0.20179236471E+02 -0.38455190621E+02  0.46108333160E+02  0.00000000000E+00 0. -1.
        -12    1    6    6    0    0  0.33795752778E+02  0.79808180846E+02 -0.16021639739E+03  0.18215595688E+03  0.00000000000E+00 0.  1.
</event>
<event>
12    1  0.1596842E-001  0.1802780E+03  0.7818608E-02  0.1167794E+00
         21   -1    0    0  501  502  0.00000000000E+00  0.00000000000E+00  0.74788598295E+02  0.74788598295E+02  0.00000000000E+00 0.  1.
         21   -1    0    0  502  503 -0.00000000000E+00 -0.00000000000E+00 -0.53975733142E+03  0.53975733142E+03  0.00000000000E+00 0.  1.
         -6    2    1    2    0  503  0.29018607038E+02 -0.41661843753E+02 -0.94625030627E+02  0.20265443749E+03  0.17186371296E+03 0.  0.
        -24    2    3    3    0    0  0.32124035866E+01 -0.16623817597E+02  0.18389952186E+02  0.83964340046E+02  0.80157028448E+02 0.  0.
          6    2    1    2  501    0 -0.29018607038E+02  0.41661843753E+02 -0.37034370250E+03  0.41189149223E+03  0.17298079260E+03 0.  0.
         24    2    5    5    0    0 -0.24537585297E+01 -0.41807761147E+02 -0.21343019250E+03  0.23212273594E+03  0.81083954298E+02 0.  0.
          5    1    5    5  501    0 -0.26564848508E+02  0.83469604900E+02 -0.15691350999E+03  0.17976875629E+03  0.47000000000E+01 0. -1.
        -13    1    6    6    0    0 -0.35763108766E+02 -0.31394674813E+02 -0.70955064273E+02  0.85435628992E+02  0.00000000000E+00 0.  1.
         14    1    6    6    0    0  0.33309350237E+02 -0.10413086334E+02 -0.14247512823E+03  0.14668710695E+03  0.00000000000E+00 0. -1.
         -5    1    3    3    0  503  0.25806203451E+02 -0.25038026156E+02 -0.11301498281E+03  0.11869009744E+03  0.47000000000E+01 0.  1.
         13    1    4    4    0    0 -0.18806779584E+02  0.61149588777E+01 -0.23976206978E+02  0.31079674732E+02  0.00000000000E+00 0. -1.
        -14    1    4    4    0    0  0.22019183171E+02 -0.22738776475E+02  0.42366159164E+02  0.52884665314E+02  0.00000000000E+00 0.  1.
</event>
<event>
12    1  0.1596842E-001  0.2708270E+03  0.7818608E-02  0.1100825E+00
         21   -1    0    0  503  502  0.00000000000E+00  0.00000000000E+00  0.19567922809E+03  0.19567922809E+03  0.00000000000E+00 0.  1.
         21   -1    0    0  501  503 -0.00000000000E+00 -0.00000000000E+00 -0.65880441385E+03  0.65880441385E+03  0.00000000000E+00 0.  1.
          6    2    1    2  501    0 -0.17899702696E+03  0.10594617603E+03 -0.51211683191E+03  0.57926105950E+03  0.17324894705E+03 0.  0.
         24    2    3    3    0    0 -0.19863458598E+03  0.65067524735E+02 -0.44671830809E+03  0.49953807177E+03  0.79319334563E+02 0.  0.
         -6    2    1    2    0  502  0.17899702696E+03 -0.10594617603E+03  0.48991646142E+02  0.27522258244E+03  0.17344382554E+03 0.  0.
        -24    2    5    5    0    0  0.14916245481E+03 -0.12798943642E+02  0.28662487515E+01  0.16698141245E+03  0.73900783750E+02 0.  0.
          5    1    3    3  501    0  0.19637559022E+02  0.40878651292E+02 -0.65398523812E+02  0.79722987730E+02  0.47000000000E+01 0. -1.
        -13    1    4    4    0    0 -0.15430034360E+03  0.13873189489E+02 -0.33095028714E+03  0.36541641176E+03  0.00000000000E+00 0.  1.
         14    1    4    4    0    0 -0.44334242377E+02  0.51194335246E+02 -0.11576802095E+03  0.13412166001E+03  0.00000000000E+00 0. -1.
         -5    1    5    5    0  502  0.29834572149E+02 -0.93147232385E+02  0.46125397391E+02  0.10824116999E+03  0.47000000000E+01 0.  1.
         11    1    6    6    0    0  0.28085011557E+01  0.73612199603E+01 -0.16205766227E+02  0.18019492142E+02  0.00000000000E+00 0. -1.
        -12    1    6    6    0    0  0.14635395365E+03 -0.20160163603E+02  0.19072014979E+02  0.14896192031E+03  0.00000000000E+00 0.  1.
</event>
<event>
12    1  0.1596842E-001  0.1859000E+03  0.7818608E-02  0.1162395E+00
         21   -1    0    0  503  502  0.00000000000E+00  0.00000000000E+00  0.11812399534E+03  0.11812399534E+03  0.00000000000E+00 0. -1.
         21   -1    0    0  501  503 -0.00000000000E+00 -0.00000000000E+00 -0.31753659089E+03  0.31753659089E+03  0.00000000000E+00 0. -1.
          6    2    1    2  501    0  0.51899941110E+02  0.40079636122E+02 -0.16209266060E+03  0.24605158997E+03  0.17311086964E+03 0.  0.
         24    2    3    3    0    0 -0.11864415819E+02 -0.29630104117E+02 -0.30145732851E+02  0.83701896893E+02  0.71263840071E+02 0.  0.
         -6    2    1    2    0  502 -0.51899941110E+02 -0.40079636122E+02 -0.37319934953E+02  0.18960899627E+03  0.17395060449E+03 0.  0.
        -24    2    5    5    0    0 -0.48174294615E+02  0.22138867491E+02 -0.66500406911E+02  0.12062629860E+03  0.85542432043E+02 0.  0.
          5    1    3    3  501    0  0.63764356929E+02  0.69709740239E+02 -0.13194692775E+03  0.16234969307E+03  0.47000000000E+01 0. -1.
        -11    1    4    4    0    0 -0.36916202830E+02 -0.13644008284E+02 -0.36085912955E+02  0.53396236826E+02  0.00000000000E+00 0.  1.
         12    1    4    4    0    0  0.25051787010E+02 -0.15986095833E+02  0.59401801048E+01  0.30305660067E+02  0.00000000000E+00 0. -1.
         -5    1    5    5    0  502 -0.37256464952E+01 -0.62218503613E+02  0.29180471958E+02  0.68982697667E+02  0.47000000000E+01 0.  1.
         13    1    6    6    0    0 -0.62261973269E+02  0.36285143826E+02 -0.28104290291E+02  0.77349958698E+02  0.00000000000E+00 0. -1.
        -14    1    6    6    0    0  0.14087678654E+02 -0.14146276335E+02 -0.38396116620E+02  0.43276339904E+02  0.00000000000E+00 0.  1.
</event>
<event>
12    1  0.1596842E-001  0.1870445E+03  0.7818608E-02  0.1161634E+00
         21   -1    0    0  503  502  0.00000000000E+00  0.00000000000E+00  0.19074915974E+03  0.19074915974E+03  0.00000000000E+00 0.  1.
         21   -1    0    0  501  503 -0.00000000000E+00 -0.00000000000E+00 -0.25659604283E+03  0.25659604283E+03  0.00000000000E+00 0.  1.
          6    2    1    2  501    0 -0.70820084989E+02 -0.23630173645E+02  0.88299908845E+02  0.20496766559E+03  0.16923652234E+03 0.  0.
         24    2    3    3    0    0 -0.34394804203E+01  0.38909951581E+02  0.21996404219E+02  0.91523151135E+02  0.79792424687E+02 0.  0.
         -6    2    1    2    0  502  0.70820084989E+02  0.23630173645E+02 -0.15414679194E+03  0.24237753698E+03  0.17149859306E+03 0.  0.
        -24    2    5    5    0    0 -0.54996982535E+01  0.14806265591E+02 -0.14225604290E+02  0.82682203852E+02  0.79903109043E+02 0.  0.
          5    1    3    3  501    0 -0.67380604569E+02 -0.62540125225E+02  0.66303504626E+02  0.11344451446E+03  0.47000000000E+01 0. -1.
        -11    1    4    4    0    0  0.18253135276E+02 -0.19120492165E+02  0.10858186774E+02  0.28577445443E+02  0.00000000000E+00 0.  1.
         12    1    4    4    0    0 -0.21692615696E+02  0.58030443746E+02  0.11138217446E+02  0.62945705691E+02  0.00000000000E+00 0. -1.
         -5    1    5    5    0  502  0.76319783242E+02  0.88239080540E+01 -0.13992118765E+03  0.15969533312E+03  0.47000000000E+01 0.  1.
         13    1    6    6    0    0  0.25969443210E+02 -0.16268818977E+02  0.10026142274E+02  0.32242983430E+02  0.00000000000E+00 0. -1.
        -14    1    6    6    0    0 -0.31469141464E+02  0.31075084568E+02 -0.24251746564E+02  0.50439220422E+02  0.00000000000E+00 0.  1.
</event>
<event>
12    1  0.1596842E-001  0.2106205E+03  0.7818608E-02  0.1141122E+00
         21   -1    0    0  503  502  0.00000000000E+00  0.00000000000E+00  0.58208814116E+02  0.58208814116E+02  0.00000000000E+00 0.  1.
         21   -1    0    0  501  503 -0.00000000000E+00 -0.00000000000E+00 -0.76785560635E+03  0.76785560635E+03  0.00000000000E+00 0.  1.
          6    2    1    2  501    0  0.20826765061E+02 -0.11976573056E+03 -0.31670239628E+03  0.38034378107E+03  0.17199825472E+03 0.  0.
         24    2    3    3    0    0  0.57051277881E+02 -0.27016272370E+02 -0.96057744412E+02  0.13822639276E+03  0.76777067620E+02 0.  0.
         -6    2    1    2    0  502 -0.20826765061E+02  0.11976573056E+03 -0.39294439595E+03  0.44572063940E+03  0.17170907290E+03 0.  0.
        -24    2    5    5    0    0 -0.77690551024E+02  0.58965659904E+02 -0.20975410118E+03  0.24444741007E+03  0.79025202063E+02 0.  0.
          5    1    3    3  501    0 -0.36224512820E+02 -0.92749458193E+02 -0.22064465187E+03  0.24211738831E+03  0.47000000000E+01 0. -1.
        -13    1    4    4    0    0  0.39451697790E+02 -0.51108172363E+02 -0.84238779866E+02  0.10613507325E+03  0.00000000000E+00 0.  1.
         14    1    4    4    0    0  0.17599580091E+02  0.24091899993E+02 -0.11818964546E+02  0.32091319505E+02  0.00000000000E+00 0. -1.
         -5    1    5    5    0  502  0.56863785962E+02  0.60800070659E+02 -0.18319029477E+03  0.20127322933E+03  0.47000000000E+01 0.  1.
         11    1    6    6    0    0  0.78518861831E+01  0.50437963985E+01 -0.77023116320E+02  0.77586419214E+02  0.00000000000E+00 0. -1.
        -12    1    6    6    0    0 -0.85542437207E+02  0.53921863506E+02 -0.13273098486E+03  0.16686099085E+03  0.00000000000E+00 0.  1.
</event>
<event>
12    1  0.1596842E-001  0.3152905E+03  0.7818608E-02  0.1077879E+00
         21   -1    0    0  501  502  0.00000000000E+00  0.00000000000E+00  0.12793563136E+03  0.12793563136E+03  0.00000000000E+00 0.  1.
         21   -1    0    0  502  503 -0.00000000000E+00 -0.00000000000E+00 -0.86576804776E+03  0.86576804776E+03  0.00000000000E+00 0.  1.
         -6    2    1    2    0  503  0.13664288738E+03 -0.22528783145E+03 -0.52859327116E+03  0.61530028837E+03  0.17250424019E+03 0.  0.
        -24    2    3    3    0    0  0.16138348125E+03 -0.22671576918E+03 -0.47518464923E+03  0.55623501188E+03  0.78436404543E+02 0.  0.
          6    2    1    2  501    0 -0.13664288738E+03  0.22528783145E+03 -0.20923914524E+03  0.37840339075E+03  0.17315374833E+03 0.  0.
         24    2    5    5    0    0 -0.15819985088E+03  0.19986692652E+03 -0.13970554809E+03  0.30115097192E+03  0.78741898529E+02 0.  0.
          5    1    5    5  501    0  0.21556963502E+02  0.25420904930E+02 -0.69533597151E+02  0.77252418834E+02  0.47000000000E+01 0. -1.
        -11    1    6    6    0    0 -0.23677507167E+02  0.52044194218E+02  0.20599743463E+00  0.57177486237E+02  0.00000000000E+00 0.  1.
         12    1    6    6    0    0 -0.13452234372E+03  0.14782273230E+03 -0.13991154553E+03  0.24397348568E+03  0.00000000000E+00 0. -1.
         -5    1    3    3    0  503 -0.24740593868E+02  0.14279377323E+01 -0.53408621922E+02  0.59065276488E+02  0.47000000000E+01 0.  1.
         11    1    4    4    0    0  0.25902868828E+01 -0.31763630859E+02 -0.96928174819E+02  0.10203288149E+03  0.00000000000E+00 0. -1.
        -12    1    4    4    0    0  0.15879319437E+03 -0.19495213832E+03 -0.37825647442E+03  0.45420213039E+03  0.00000000000E+00 0.  1.
</event>
<event>
12    1  0.1596842E-001  0.2389581E+03  0.7818608E-02  0.1120494E+00
         21   -1    0    0  503  502  0.00000000000E+00  0.00000000000E+00  0.24310719981E+04  0.24310719981E+04  0.00000000000E+00 0. -1.
         21   -1    0    0  501  503 -0.00000000000E+00 -0.00000000000E+00 -0.24626217224E+02  0.24626217224E+02  0.00000000000E+00 0. -1.
          6    2    1    2  501    0 -0.13957855611E+03  0.89833498827E+02  0.93882171209E+03  0.96874785949E+03  0.17185452374E+03 0.  0.
         24    2    3    3    0    0 -0.12127007585E+03  0.57245359591E+02  0.90484151163E+03  0.91801393305E+03  0.77639922825E+02 0.  0.
         -6    2    1    2    0  502  0.13957855611E+03 -0.89833498827E+02  0.14676240688E+04  0.14869503558E+04  0.17189741885E+03 0.  0.
        -24    2    5    5    0    0  0.76716199980E+02 -0.16038609750E+02  0.11318401180E+04  0.11374216545E+04  0.80767289184E+02 0.  0.
          5    1    3    3  501    0 -0.18308480260E+02  0.32588139236E+02  0.33980200462E+02  0.50733926437E+02  0.47000000000E+01 0. -1.
        -13    1    4    4    0    0 -0.46233686013E+02 -0.96317408782E+01  0.43408282761E+03  0.43664427785E+03  0.00000000000E+00 0.  1.
         14    1    4    4    0    0 -0.75036389837E+02  0.66877100469E+02  0.47075868402E+03  0.48136965520E+03  0.00000000000E+00 0. -1.
         -5    1    5    5    0  502  0.62862356130E+02 -0.73794889077E+02  0.33578395073E+03  0.34952870131E+03  0.47000000000E+01 0.  1.
         11    1    6    6    0    0  0.65907352694E+02 -0.32784786056E+02  0.10682004438E+04  0.10707337715E+04  0.00000000000E+00 0. -1.
        -12    1    6    6    0    0  0.10808847286E+02  0.16746176306E+02  0.63639674236E+02  0.66687882988E+02  0.00000000000E+00 0.  1.
</event>
<event>
12    1  0.1596842E-001  0.1766272E+03  0.7818608E-02  0.1172297E+00
         21   -1    0    0  501  502  0.00000000000E+00  0.00000000000E+00  0.16833509511E+03  0.16833509511E+03  0.00000000000E+00 0.  1.
         21   -1    0    0  502  503 -0.00000000000E+00 -0.00000000000E+00 -0.53343824002E+03  0.53343824002E+03  0.00000000000E+00 0.  1.
         -6    2    1    2    0  503  0.10321157795E+02 -0.21325355106E+02 -0.46715798040E+03  0.49778224553E+03  0.17026240993E+03 0.  0.
        -24    2    3    3    0    0 -0.14580903949E+02 -0.77179552852E+02 -0.34747952868E+03  0.36330241101E+03  0.71255405782E+02 0.  0.
          6    2    1    2  501    0 -0.10321157795E+02  0.21325355106E+02  0.10205483550E+03  0.20399108960E+03  0.17503107758E+03 0.  0.
         24    2    5    5    0    0  0.16020828050E+02 -0.16343573710E+02  0.12707548130E+03  0.15144614567E+03  0.79145295242E+02 0.  0.
          5    1    5    5  501    0 -0.26341985845E+02  0.37668928815E+02 -0.25020645798E+02  0.52544943929E+02  0.47000000000E+01 0. -1.
        -13    1    6    6    0    0  0.12650417034E+02  0.17828592329E+02  0.11170683131E+03  0.11382577879E+03  0.00000000000E+00 0.  1.
         14    1    6    6    0    0  0.33704110161E+01 -0.34172166038E+02  0.15368649991E+02  0.37620366887E+02  0.00000000000E+00 0. -1.
         -5    1    3    3    0  503  0.24902061745E+02  0.55854197747E+02 -0.11967845173E+03  0.13447983452E+03  0.47000000000E+01 0.  1.
         11    1    4    4    0    0 -0.31678346054E+01 -0.49040284173E+02 -0.78493699275E+02  0.92608020569E+02  0.00000000000E+00 0. -1.
        -12    1    4    4    0    0 -0.11413069344E+02 -0.28139268679E+02 -0.26898582940E+03  0.27069439044E+03  0.00000000000E+00 0.  1.
</event>
<event>
12    1  0.1596842E-001  0.3045743E+03  0.7818608E-02  0.1083148E+00
         21   -1    0    0  503  502  0.00000000000E+00  0.00000000000E+00  0.18954083151E+04  0.18954083151E+04  0.00000000000E+00 0.  1.
         21   -1    0    0  501  503 -0.00000000000E+00 -0.00000000000E+00 -0.53412191464E+02  0.53412191464E+02  0.00000000000E+00 0. -1.
          6    2    1    2  501    0  0.10129677904E+03  0.22554315671E+03  0.63019834044E+03  0.69933286695E+03  0.17545870603E+03 0.  0.
         24    2    3    3    0    0  0.53967606243E+02  0.29481645774E+02  0.17451174869E+03  0.20098306354E+03  0.78474017578E+02 0.  0.
         -6    2    1    2    0  502 -0.10129677904E+03 -0.22554315671E+03  0.12117977832E+04  0.12494876396E+04  0.17786157878E+03 0.  0.
        -24    2    5    5    0    0 -0.99776019043E+02 -0.96666023605E+02  0.86093000175E+03  0.87566693632E+03  0.79325540450E+02 0.  0.
          5    1    3    3  501    0  0.47329172799E+02  0.19606151093E+03  0.45568659174E+03  0.49834980341E+03  0.47000000000E+01 0. -1.
        -13    1    4    4    0    0  0.20270814995E+02  0.72616886615E+01  0.15438622857E+03  0.15588054925E+03  0.00000000000E+00 0.  1.
         14    1    4    4    0    0  0.33696791248E+02  0.22219957112E+02  0.20125520124E+02  0.45102514284E+02  0.00000000000E+00 0. -1.
         -5    1    5    5    0  502 -0.15207599986E+01 -0.12887713310E+03  0.35086778142E+03  0.37382070326E+03  0.47000000000E+01 0.  1.
         11    1    6    6    0    0 -0.47193134943E+02 -0.73040206617E+02  0.31768383120E+03  0.32937073394E+03  0.00000000000E+00 0. -1.
        -12    1    6    6    0    0 -0.52582884100E+02 -0.23625816988E+02  0.54324617054E+03  0.54629620238E+03  0.00000000000E+00 0.  1.
</event>
<event>
12    1  0.1596842E-001  0.2444233E+03  0.7818608E-02  0.1116942E+00
         21   -1    0    0  501  502  0.00000000000E+00  0.00000000000E+00  0.58213076465E+03  0.58213076465E+03  0.00000000000E+00 0.  1.
         21   -1    0    0  502  503 -0.00000000000E+00 -0.00000000000E+00 -0.15985538716E+03  0.15985538716E+03  0.00000000000E+00 0.  1.
         -6    2    1    2    0  503 -0.16579642233E+03  0.49234542226E+02 -0.11247697568E+02  0.24430653475E+03  0.17218210829E+03 0.  0.
        -24    2    3    3    0    0 -0.13419036628E+03 -0.29493992290E+02 -0.40191857471E+01  0.15903364158E+03  0.79991220247E+02 0.  0.
          6    2    1    2  501    0  0.16579642233E+03 -0.49234542226E+02  0.43352307505E+03  0.49767961706E+03  0.17271436198E+03 0.  0.
         24    2    5    5    0    0  0.99967490345E+02 -0.57545083440E+02  0.40491460887E+03  0.42527072453E+03  0.59953422827E+02 0.  0.
          5    1    5    5  501    0  0.65828931981E+02  0.83105412143E+01  0.28608466182E+02  0.72408892536E+02  0.47000000000E+01 0. -1.
        -13    1    6    6    0    0  0.74897149577E+02 -0.96174493015E+01  0.25209347750E+03  0.26316002687E+03  0.00000000000E+00 0.  1.
         14    1    6    6    0    0  0.25070340768E+02 -0.47927634139E+02  0.15282113137E+03  0.16211069765E+03  0.00000000000E+00 0. -1.
         -5    1    3    3    0  503 -0.31606056041E+02  0.78728534516E+02 -0.72285118213E+01  0.85272893164E+02  0.47000000000E+01 0.  1.
         11    1    4    4    0    0 -0.11388817223E+02 -0.13393354025E+02  0.26196050935E+02  0.31548695288E+02  0.00000000000E+00 0. -1.
        -12    1    4    4    0    0 -0.12280154906E+03 -0.16100638265E+02 -0.30215236682E+02  0.12748494630E+03  0.00000000000E+00 0.  1.
</event>
<event>
12    1  0.1596842E-001  0.2495814E+03  0.7818608E-02  0.1113806E+00
         21   -1    0    0  501  502  0.00000000000E+00  0.00000000000E+00  0.10324200035E+03  0.10324200035E+03  0.00000000000E+00 0.  1.
         21   -1    0    0  502  503 -0.00000000000E+00 -0.00000000000E+00 -0.97121586317E+03  0.97121586317E+03  0.00000000000E+00 0.  1.
         -6    2    1    2    0  503  0.17832503117E+03 -0.35668162903E+02 -0.76703420563E+03  0.80661783515E+03  0.17093514793E+03 0.  0.
        -24    2    3    3    0    0  0.14999290330E+03 -0.22609804219E+01 -0.72894851838E+03  0.74838246030E+03  0.78786936501E+02 0.  0.
          6    2    1    2  501    0 -0.17832503117E+03  0.35668162903E+02 -0.10093965719E+03  0.26784002837E+03  0.16875257574E+03 0.  0.
         24    2    5    5    0    0 -0.94904067172E+02  0.14754645583E+02  0.12445851477E+02  0.12545043600E+03  0.79739771389E+02 0.  0.
          5    1    5    5  501    0 -0.83420963997E+02  0.20913517320E+02 -0.11338550866E+03  0.14238959237E+03  0.47000000000E+01 0. -1.
        -13    1    6    6    0    0 -0.26579024432E+02  0.34433487348E+02 -0.19293850652E+02  0.47585315631E+02  0.00000000000E+00 0.  1.
         14    1    6    6    0    0 -0.68325042740E+02 -0.19678841764E+02  0.31739702130E+02  0.77865120368E+02  0.00000000000E+00 0. -1.
         -5    1    3    3    0  503  0.28332127874E+02 -0.33407182482E+02 -0.38085687246E+02  0.58235374853E+02  0.47000000000E+01 0.  1.
         11    1    4    4    0    0 -0.89151835207E+01  0.36948160659E+01 -0.27802842970E+02  0.29430090727E+02  0.00000000000E+00 0. -1.
        -12    1    4    4    0    0  0.15890808682E+03 -0.59557964878E+01 -0.70114567541E+03  0.71895236957E+03  0.00000000000E+00 0.  1.
</event>
<event>
12    1  0.1596842E-001  0.2399962E+03  0.7818608E-02  0.1119999E+00
         21   -1    0    0  501  502  0.00000000000E+00  0.00000000000E+00  0.11743929648E+03  0.11743929648E+03  0.00000000000E+00 0.  1.
         21   -1    0    0  502  503 -0.00000000000E+00 -0.00000000000E+00 -0.62325992031E+03  0.62325992031E+03  0.00000000000E+00 0.  1.
         -6    2    1    2    0  503  0.16692495497E+03 -0.83377655159E+01 -0.42495780630E+03  0.48744640735E+03  0.17053270648E+03 0.  0.
        -24    2    3    3    0    0  0.92284170770E+02  0.61485261963E+02 -0.23807498655E+03  0.27438824593E+03  0.79450642971E+02 0.  0.
          6    2    1    2  501    0 -0.16692495497E+03  0.83377655159E+01 -0.80862817525E+02  0.25325280944E+03  0.17223452415E+03 0.  0.
         24    2    5    5    0    0 -0.13970621292E+03  0.56050478346E+02 -0.96299812985E+02  0.19600113949E+03  0.80519007989E+02 0.  0.
          5    1    5    5  501    0 -0.27218742045E+02 -0.47712712830E+02  0.15436995460E+02  0.57251669958E+02  0.47000000000E+01 0. -1.
        -13    1    6    6    0    0 -0.87764750960E+02  0.58431670973E+02 -0.26059266458E+02  0.10860937829E+03  0.00000000000E+00 0.  1.
         14    1    6    6    0    0 -0.51941461961E+02 -0.23811926272E+01 -0.70240546527E+02  0.87391761199E+02  0.00000000000E+00 0. -1.
         -5    1    3    3    0  503  0.74640784197E+02 -0.69823027479E+02 -0.18688281975E+03  0.21305816142E+03  0.47000000000E+01 0.  1.
         11    1    4    4    0    0  0.10607294268E+02  0.22090982101E+02 -0.60049927693E+01  0.25230658335E+02  0.00000000000E+00 0. -1.
        -12    1    4    4    0    0  0.81676876502E+02  0.39394279862E+02 -0.23206999378E+03  0.24915758759E+03  0.00000000000E+00 0.  1.
</event>
<event>
12    1  0.1596842E-001  0.2315016E+03  0.7818608E-02  0.1125804E+00
         21   -1    0    0  501  502  0.00000000000E+00  0.00000000000E+00  0.11631882863E+04  0.11631882863E+04  0.00000000000E+00 0. -1.
         21   -1    0    0  502  503 -0.00000000000E+00 -0.00000000000E+00 -0.69252753740E+02  0.69252753740E+02  0.00000000000E+00 0.  1.
         -6    2    1    2    0  503 -0.11574625982E+01  0.15514682183E+03  0.18760587505E+03  0.29701255875E+03  0.17014293890E+03 0.  0.
        -24    2    3    3    0    0  0.82575801743E+01  0.75780456361E+02  0.18895189702E+03  0.21694031154E+03  0.74494390290E+02 0.  0.
          6    2    1    2  501    0  0.11574625982E+01 -0.15514682183E+03  0.90632965749E+03  0.93542848126E+03  0.17181711055E+03 0.  0.
         24    2    5    5    0    0  0.85502655132E+01 -0.77911043833E+01  0.40832367608E+03  0.41600533150E+03  0.78729937362E+02 0.  0.
          5    1    5    5  501    0 -0.73928029151E+01 -0.14735571745E+03  0.49800598140E+03  0.51942314977E+03  0.47000000000E+01 0. -1.
        -13    1    6    6    0    0 -0.12123171634E+02  0.16705890963E+02  0.30522288142E+02  0.36846548777E+02  0.00000000000E+00 0.  1.
         14    1    6    6    0    0  0.20673437147E+02 -0.24496995347E+02  0.37780138794E+03  0.37915878272E+03  0.00000000000E+00 0. -1.
         -5    1    3    3    0  503 -0.94150427725E+01  0.79366365473E+02 -0.13460219738E+01  0.80072247214E+02  0.47000000000E+01 0.  1.
         11    1    4    4    0    0 -0.19681159125E+02  0.18075691807E+02  0.11937229422E+03  0.12232670717E+03  0.00000000000E+00 0. -1.
        -12    1    4    4    0    0  0.27938739299E+02  0.57704764554E+02  0.69579602802E+02  0.94613604370E+02  0.00000000000E+00 0.  1.
</event>
<event>
12    1  0.1596842E-001  0.2047906E+03  0.7818608E-02  0.1146940E+00
         21   -1    0    0  501  502  0.00000000000E+00  0.00000000000E+00  0.23962861088E+03  0.23962861088E+03  0.00000000000E+00 0. -1.
         21   -1    0    0  502  503 -0.00000000000E+00 -0.00000000000E+00 -0.93967544060E+03  0.93967544060E+03  0.00000000000E+00 0.  1.
         -6    2    1    2    0  503 -0.20947579140E+02 -0.97560625244E+02 -0.88449562902E+03  0.90789411146E+03  0.17883602322E+03 0.  0.
        -24    2    3    3    0    0 -0.37671648801E+01 -0.12880811515E+03 -0.52213223478E+03  0.54375005790E+03  0.80226758694E+02 0.  0.
          6    2    1    2  501    0  0.20947579140E+02  0.97560625244E+02  0.18444879930E+03  0.27140994001E+03  0.17229370071E+03 0.  0.
         24    2    5    5    0    0  0.68731571072E+02  0.10804114688E+03  0.14377290965E+03  0.20761519715E+03  0.77694930699E+02 0.  0.
          5    1    5    5  501    0 -0.47783991932E+02 -0.10480521636E+02  0.40675889650E+02  0.63794742868E+02  0.47000000000E+01 0. -1.
        -11    1    6    6    0    0 -0.16892912436E+02  0.25519619856E+02  0.24670837909E+02  0.39309944433E+02  0.00000000000E+00 0.  1.
         12    1    6    6    0    0  0.85624483508E+02  0.82521527024E+02  0.11910207174E+03  0.16830525271E+03  0.00000000000E+00 0. -1.
         -5    1    3    3    0  503 -0.17180414260E+02  0.31247489905E+02 -0.36236339424E+03  0.36414405356E+03  0.47000000000E+01 0.  1.
         11    1    4    4    0    0 -0.40484278777E+01 -0.50264590901E+02 -0.79083133350E+02  0.93792648151E+02  0.00000000000E+00 0. -1.
        -12    1    4    4    0    0  0.28126299763E+00 -0.78543524248E+02 -0.44304910143E+03  0.44995740975E+03  0.00000000000E+00 0.  1.
</event>
<event>
12    1  0.1596842E-001  0.1788219E+03  0.7818608E-02  0.1169357E+00
         21   -1    0    0  501  502  0.00000000000E+00  0.00000000000E+00  0.53254568405E+03  0.53254568405E+03  0.00000000000E+00 0.  1.
         21   -1    0    0  502  503 -0.00000000000E+00 -0.00000000000E+00 -0.14885221093E+03  0.14885221093E+03  0.00000000000E+00 0.  1.
         -6    2    1    2    0  503  0.49548405406E+02 -0.15819933227E+02 -0.72495196826E+02  0.19141281324E+03  0.16934579045E+03 0.  0.
        -24    2    3    3    0    0 -0.33482590637E+02  0.98093617061E+01 -0.13811601063E+02  0.86451575273E+02  0.77883291472E+02 0.  0.
          6    2    1    2  501    0 -0.49548405406E+02  0.15819933227E+02  0.45618866994E+03  0.48998508174E+03  0.17109051108E+03 0.  0.
         24    2    5    5    0    0 -0.29877120406E+02  0.26633567030E+02  0.99533470950E+02  0.13259325881E+03  0.77923495983E+02 0.  0.
          5    1    5    5  501    0 -0.19671285000E+02 -0.10813633803E+02  0.35665519899E+03  0.35739182293E+03  0.47000000000E+01 0. -1.
        -13    1    6    6    0    0 -0.78004596088E+01 -0.26958233385E+02  0.44858157152E+02  0.52913587862E+02  0.00000000000E+00 0.  1.
         14    1    6    6    0    0 -0.22076660797E+02  0.53591800414E+02  0.54675313798E+02  0.79679670949E+02  0.00000000000E+00 0. -1.
         -5    1    3    3    0  503  0.83030996043E+02 -0.25629294933E+02 -0.58683595764E+02  0.10496123796E+03  0.47000000000E+01 0.  1.
         11    1    4    4    0    0  0.10095086595E+02 -0.71584143104E+01  0.23544249951E+02  0.26598597229E+02  0.00000000000E+00 0. -1.
        -12    1    4    4    0    0 -0.43577677232E+02  0.16967776016E+02 -0.37355851014E+02  0.59852978045E+02  0.00000000000E+00 0.  1.
</event>
<event>
12    1  0.1596842E-001  0.1892709E+03  0.7818608E-02  0.1159121E+00
         21   -1    0    0  501  502  0.00000000000E+00  0.00000000000E+00  0.32203076180E+02  0.32203076180E+02  0.00000000000E+00 0. -1.
         21   -1    0    0  502  503 -0.00000000000E+00 -0.00000000000E+00 -0.11181178346E+04  0.11181178346E+04  0.00000000000E+00 0.  1.
         -6    2    1    2    0  503 -0.77826798146E+02 -0.20132552847E+01 -0.50184868989E+03  0.53635294883E+03  0.17251467901E+03 0.  0.
        -24    2    3    3    0    0  0.17194230668E+02  0.33540261600E+02 -0.23295949965E+03  0.24892202651E+03  0.79192525463E+02 0.  0.
          6    2    1    2  501    0  0.77826798146E+02  0.20132552847E+01 -0.58406606852E+03  0.61396796194E+03  0.17251788945E+03 0.  0.
         24    2    5    5    0    0  0.86956918982E+02  0.49373017615E+02 -0.50906924972E+03  0.52467675842E+03  0.78326235654E+02 0.  0.
          5    1    5    5  501    0 -0.91301208358E+01 -0.47359762330E+02 -0.74996818805E+02  0.89291203516E+02  0.47000000000E+01 0. -1.
        -11    1    6    6    0    0  0.69023412919E+02  0.10617765196E+01 -0.36960620902E+03  0.37599748490E+03  0.00000000000E+00 0.  1.
         12    1    6    6    0    0  0.17933506063E+02  0.48311241095E+02 -0.13946304070E+03  0.14867927353E+03  0.00000000000E+00 0. -1.
         -5    1    3    3    0  503 -0.95021028814E+02 -0.35553516885E+02 -0.26888919024E+03  0.28743092232E+03  0.47000000000E+01 0.  1.
         13    1    4    4    0    0  0.13409295207E+02 -0.25274783146E+02 -0.83239262754E+02  0.88019308819E+02  0.00000000000E+00 0. -1.
        -14    1    4    4    0    0  0.37849354610E+01  0.58815044746E+02 -0.14972023689E+03  0.16090271769E+03  0.00000000000E+00 0.  1.
</event>
<event>
12    1  0.1596842E-001  0.1802346E+03  0.7818608E-02  0.1167635E+00
         21   -1    0    0  503  502  0.00000000000E+00  0.00000000000E+00  0.10154510552E+03  0.10154510552E+03  0.00000000000E+00 0.  1.
         21   -1    0    0  501  503 -0.00000000000E+00 -0.00000000000E+00 -0.52250973383E+03  0.52250973383E+03  0.00000000000E+00 0.  1.
          6    2    1    2  501    0 -0.43376484448E+02  0.15653537731E+02 -0.40507770108E+03  0.44336492559E+03  0.17423536004E+03 0.  0.
         24    2    3    3    0    0  0.48207510840E+01  0.69934743946E+02 -0.27148347212E+03  0.29125006480E+03  0.78798582247E+02 0.  0.
         -6    2    1    2    0  502  0.43376484448E+02 -0.15653537731E+02 -0.15886927227E+02  0.18068991376E+03  0.17398246415E+03 0.  0.
        -24    2    5    5    0    0  0.80680715306E+02 -0.53335998563E+02 -0.87197956279E+01  0.12697742667E+03  0.81811524139E+02 0.  0.
          5    1    3    3  501    0 -0.48197235532E+02 -0.54281206214E+02 -0.13359422896E+03  0.15211486079E+03  0.47000000000E+01 0. -1.
        -13    1    4    4    0    0  0.22792687841E+02  0.12556893307E+02 -0.17938163378E+03  0.18125935211E+03  0.00000000000E+00 0.  1.
         14    1    4    4    0    0 -0.17971936757E+02  0.57377850639E+02 -0.92101838337E+02  0.10999071270E+03  0.00000000000E+00 0. -1.
         -5    1    5    5    0  502 -0.37304230858E+02  0.37682460831E+02 -0.71671315995E+01  0.53712487092E+02  0.47000000000E+01 0.  1.
         11    1    6    6    0    0  0.27388859207E+01 -0.15356546362E+02 -0.33372345252E+02  0.36838002659E+02  0.00000000000E+00 0. -1.
        -12    1    6    6    0    0  0.77941829385E+02 -0.37979452201E+02  0.24652549624E+02  0.90139424007E+02  0.00000000000E+00 0.  1.
</event>
<event>
12    1  0.1596842E-001  0.2096012E+03  0.7818608E-02  0.1142434E+00
         21   -1    0    0  501  502  0.00000000000E+00  0.00000000000E+00  0.27059510535E+03  0.27059510535E+03  0.00000000000E+00 0. -1.
         21   -1    0    0  502  503 -0.00000000000E+00 -0.00000000000E+00 -0.31279713136E+03  0.31279713136E+03  0.00000000000E+00 0.  1.
         -6    2    1    2    0  503  0.10947055180E+03  0.36292124402E+02 -0.22489296385E+03  0.30742400438E+03  0.17501929401E+03 0.  0.
        -24    2    3    3    0    0  0.14049015329E+03  0.41765612412E+02 -0.21909078520E+03  0.27505225706E+03  0.78556491793E+02 0.  0.
          6    2    1    2  501    0 -0.10947055180E+03 -0.36292124402E+02  0.18269093784E+03  0.27596823234E+03  0.17170196995E+03 0.  0.
         24    2    5    5    0    0 -0.10608783350E+02 -0.61673668819E+02  0.70183762920E+02  0.12398854137E+03  0.80815902544E+02 0.  0.
          5    1    5    5  501    0 -0.98861768450E+02  0.25381544417E+02  0.11250717492E+03  0.15197969097E+03  0.47000000000E+01 0. -1.
        -11    1    6    6    0    0  0.22554710880E+02  0.88665198968E+01  0.15366016953E+02  0.28695725029E+02  0.00000000000E+00 0.  1.
         12    1    6    6    0    0 -0.33163494229E+02 -0.70540188716E+02  0.54817745967E+02  0.95292816342E+02  0.00000000000E+00 0. -1.
         -5    1    3    3    0  503 -0.31019601489E+02 -0.54734880102E+01 -0.58021786486E+01  0.32371747321E+02  0.47000000000E+01 0.  1.
         11    1    4    4    0    0  0.67650766778E+02  0.46908298171E+01 -0.41364360392E+02  0.79433245185E+02  0.00000000000E+00 0. -1.
        -12    1    4    4    0    0  0.72839386510E+02  0.37074782595E+02 -0.17772642481E+03  0.19561901187E+03  0.00000000000E+00 0.  1.
</event>
<event>
12    1  0.1596842E-001  0.1749701E+03  0.7818608E-02  0.1172796E+00
         21   -1    0    0  503  502  0.00000000000E+00  0.00000000000E+00  0.45512719254E+03  0.45512719254E+03  0.00000000000E+00 0. -1.
         21   -1    0    0  501  503 -0.00000000000E+00 -0.00000000000E+00 -0.11003742303E+03  0.11003742303E+03  0.00000000000E+00 0. -1.
          6    2    1    2  501    0 -0.24495529604E+02 -0.17074164582E+02  0.34878933105E+03  0.39015543792E+03  0.17226639319E+03 0.  0.
         24    2    3    3    0    0 -0.82140897187E+02 -0.17429307561E+02  0.25483456345E+03  0.27982546518E+03  0.79440093685E+02 0.  0.
         -6    2    1    2    0  502  0.24495529604E+02  0.17074164582E+02 -0.36995615357E+01  0.17500917765E+03  0.17240350182E+03 0.  0.
        -24    2    5    5    0    0  0.71895495397E+02  0.19437414318E+02 -0.38086472254E+02  0.11621384335E+03  0.80674052108E+02 0.  0.
          5    1    3    3  501    0  0.57645367582E+02  0.35514297893E+00  0.93954767600E+02  0.11032997274E+03  0.47000000000E+01 0. -1.
        -11    1    4    4    0    0 -0.28724567570E+02 -0.47188871315E+01  0.13078780195E+02  0.31912743054E+02  0.00000000000E+00 0.  1.
         12    1    4    4    0    0 -0.53416329617E+02 -0.12710420429E+02  0.24175578325E+03  0.24791272213E+03  0.00000000000E+00 0. -1.
         -5    1    5    5    0  502 -0.47399965793E+02 -0.23632497364E+01  0.34386910718E+02  0.58795334298E+02  0.47000000000E+01 0.  1.
         11    1    6    6    0    0  0.47282689014E+02 -0.64131956045E+01  0.16932413133E+02  0.50630903337E+02  0.00000000000E+00 0. -1.
        -12    1    6    6    0    0  0.24612806383E+02  0.25850609923E+02 -0.55018885387E+02  0.65582940012E+02  0.00000000000E+00 0.  1.
</event>
<event>
12    1  0.1596842E-001  0.1770094E+03  0.7818608E-02  0.1170864E+00
         21   -1    0    0  503  502  0.00000000000E+00  0.00000000000E+00  0.34369533475E+03  0.34369533475E+03  0.00000000000E+00 0.  1.
         21   -1    0    0  501  503 -0.00000000000E+00 -0.00000000000E+00 -0.16893760553E+03  0.16893760553E+03  0.00000000000E+00 0.  1.
          6    2    1    2  501    0 -0.16666729122E+02  0.30890207070E+02 -0.86918203574E+02  0.19671105331E+03  0.17294068240E+03 0.  0.
         24    2    3    3    0    0  0.36706748500E+02  0.67255014073E+02 -0.67343003758E+02  0.12906191622E+03  0.79065009699E+02 0.  0.
         -6    2    1    2    0  502  0.16666729122E+02 -0.30890207070E+02  0.26167593280E+03  0.31592188697E+03  0.17349455353E+03 0.  0.
        -24    2    5    5    0    0 -0.57505174431E+01  0.35139692436E+02  0.21426467867E+03  0.23146836371E+03  0.80002402694E+02 0.  0.
          5    1    3    3  501    0 -0.53373477622E+02 -0.36364807003E+02 -0.19575199816E+02  0.67649137095E+02  0.47000000000E+01 0. -1.
        -11    1    4    4    0    0  0.38190371185E+02  0.34103310954E+01 -0.49769363880E+02  0.62826144163E+02  0.00000000000E+00 0.  1.
         12    1    4    4    0    0 -0.14836226851E+01  0.63844682978E+02 -0.17573639878E+02  0.66235772052E+02  0.00000000000E+00 0. -1.
         -5    1    5    5    0  502  0.22417246565E+02 -0.66029899506E+02  0.47411254126E+02  0.84453523255E+02  0.47000000000E+01 0.  1.
         13    1    6    6    0    0  0.62827955924E+01  0.57237489068E+02  0.10941277051E+03  0.12363962967E+03  0.00000000000E+00 0. -1.
        -14    1    6    6    0    0 -0.12033313035E+02 -0.22097796631E+02  0.10485190817E+03  0.10782873404E+03  0.00000000000E+00 0.  1.
</event>
<event>
12    1  0.1596842E-001  0.1791721E+03  0.7818608E-02  0.1168878E+00
         21   -1    0    0  501  502  0.00000000000E+00  0.00000000000E+00  0.67386681583E+02  0.67386681583E+02  0.00000000000E+00 0. -1.
         21   -1    0    0  502  503 -0.00000000000E+00 -0.00000000000E+00 -0.51254631354E+03  0.51254631354E+03  0.00000000000E+00 0. -1.
         -6    2    1    2    0  503  0.43667658669E+02  0.16568021291E+02 -0.30202543910E+03  0.35060778615E+03  0.17182866496E+03 0.  0.
        -24    2    3    3    0    0  0.78467393077E+02 -0.30014565043E+02 -0.23264609668E+03  0.25996264277E+03  0.79989770866E+02 0.  0.
          6    2    1    2  501    0 -0.43667658669E+02 -0.16568021291E+02 -0.14313419286E+03  0.22932520897E+03  0.17297771695E+03 0.  0.
         24    2    5    5    0    0 -0.10497794688E+02  0.53798419764E+02 -0.10211029533E+03  0.14125293143E+03  0.80755213840E+02 0.  0.
          5    1    5    5  501    0 -0.33169863981E+02 -0.70366441055E+02 -0.41023897525E+02  0.88072277542E+02  0.47000000000E+01 0. -1.
        -13    1    6    6    0    0  0.22519453284E+02  0.63689519508E+01 -0.72771466713E+02  0.76441975987E+02  0.00000000000E+00 0.  1.
         14    1    6    6    0    0 -0.33017247972E+02  0.47429467813E+02 -0.29338828617E+02  0.64810955442E+02  0.00000000000E+00 0. -1.
         -5    1    3    3    0  503 -0.34799734408E+02  0.46582586334E+02 -0.69379342421E+02  0.90645143385E+02  0.47000000000E+01 0.  1.
         13    1    4    4    0    0  0.62455445157E+02 -0.18983690070E+02 -0.23145335207E+03  0.24048225985E+03  0.00000000000E+00 0. -1.
        -14    1    4    4    0    0  0.16011947920E+02 -0.11030874972E+02 -0.11927446093E+01  0.19480382916E+02  0.00000000000E+00 0.  1.
</event>
<event>
12    1  0.1596842E-001  0.1906746E+03  0.7818608E-02  0.1157898E+00
         21   -1    0    0  501  502  0.00000000000E+00  0.00000000000E+00  0.50884870426E+03  0.50884870426E+03  0.00000000000E+00 0.  1.
         21   -1    0    0  502  503 -0.00000000000E+00 -0.00000000000E+00 -0.93995052333E+02  0.93995052333E+02  0.00000000000E+00 0.  1.
         -6    2    1    2    0  503 -0.69865296139E+02 -0.45331014555E+02  0.35537178998E+03  0.40329383057E+03  0.17152476259E+03 0.  0.
        -24    2    3    3    0    0 -0.95727280974E+02 -0.76437804498E+02  0.24668637477E+03  0.28722883103E+03  0.81484867290E+02 0.  0.
          6    2    1    2  501    0  0.69865296139E+02  0.45331014555E+02  0.59481861953E+02  0.19954992602E+03  0.17130680252E+03 0.  0.
         24    2    5    5    0    0  0.55592160510E+02  0.46334312425E+02  0.10499095126E+03  0.15161354927E+03  0.82013484612E+02 0.  0.
          5    1    5    5  501    0  0.14273135629E+02 -0.10032978699E+01 -0.45509089303E+02  0.47936376756E+02  0.47000000000E+01 0. -1.
        -11    1    6    6    0    0  0.57516992505E+02  0.44122339911E+02  0.33147633242E+02  0.79710418990E+02  0.00000000000E+00 0.  1.
         12    1    6    6    0    0 -0.19248319950E+01  0.22119725133E+01  0.71843318014E+02  0.71903130278E+02  0.00000000000E+00 0. -1.
         -5    1    3    3    0  503  0.25861984835E+02  0.31106789944E+02  0.10868541520E+03  0.11606499954E+03  0.47000000000E+01 0.  1.
         13    1    4    4    0    0  0.74628374903E+01 -0.31625915544E+02  0.77685383987E+02  0.84207549321E+02  0.00000000000E+00 0. -1.
        -14    1    4    4    0    0 -0.10319011846E+03 -0.44811888954E+02  0.16900099079E+03  0.20302128171E+03  0.00000000000E+00 0.  1.
</event>
<event>
12    1  0.1596842E-001  0.2069464E+03  0.7818608E-02  0.1145070E+00
         21   -1    0    0  503  502  0.00000000000E+00  0.00000000000E+00  0.13695593262E+03  0.13695593262E+03  0.00000000000E+00 0. -1.
         21   -1    0    0  501  503 -0.00000000000E+00 -0.00000000000E+00 -0.50866161568E+03  0.50866161568E+03  0.00000000000E+00 0.  1.
          6    2    1    2  501    0 -0.23066159946E+02 -0.11254015798E+03 -0.38873631702E+03  0.43797154127E+03  0.16584876212E+03 0.  0.
         24    2    3    3    0    0  0.51940595157E+01 -0.14014886254E+02 -0.83205035995E+02  0.11567149029E+03  0.78952013023E+02 0.  0.
         -6    2    1    2    0  502  0.23066159946E+02  0.11254015798E+03  0.17030633962E+02  0.20764600704E+03  0.17213217844E+03 0.  0.
        -24    2    5    5    0    0 -0.98992827940E+01  0.96474921096E+01 -0.25145486987E+02  0.91566136763E+02  0.86953964729E+02 0.  0.
          5    1    3    3  501    0 -0.28260219462E+02 -0.98525271725E+02 -0.30553128103E+03  0.32230005098E+03  0.47000000000E+01 0. -1.
        -13    1    4    4    0    0  0.41529694525E+02 -0.14245202728E+02 -0.48568536071E+02  0.65471703996E+02  0.00000000000E+00 0.  1.
         14    1    4    4    0    0 -0.36335635009E+02  0.23031647401E+00 -0.34636499924E+02  0.50199786296E+02  0.00000000000E+00 0. -1.
         -5    1    5    5    0  502  0.32965442740E+02  0.10289266587E+03  0.42176120949E+02  0.11607987027E+03  0.47000000000E+01 0.  1.
         11    1    6    6    0    0 -0.40632511642E+02 -0.16785433955E+02 -0.18989260339E+00  0.43963483194E+02  0.00000000000E+00 0. -1.
        -12    1    6    6    0    0  0.30733228848E+02  0.26432926065E+02 -0.24955594383E+02  0.47602653569E+02  0.00000000000E+00 0.  1.
</event>
<event>
12    1  0.1596842E-001  0.2186153E+03  0.7818608E-02  0.1137418E+00
         21   -1    0    0  503  502  0.00000000000E+00  0.00000000000E+00  0.16249974504E+03  0.16249974504E+03  0.00000000000E+00 0.  1.
         21   -1    0    0  501  503 -0.00000000000E+00 -0.00000000000E+00 -0.32034093602E+03  0.32034093602E+03  0.00000000000E+00 0. -1.
          6    2    1    2  501    0 -0.51472356109E+02  0.12340523547E+03 -0.16556775995E+03  0.26408884513E+03  0.15637128700E+03 0.  0.
         24    2    3    3    0    0 -0.28433727827E+02  0.82789395918E+02 -0.32167115365E+02  0.12267368755E+03  0.79696608156E+02 0.  0.
         -6    2    1    2    0  502  0.51472356109E+02 -0.12340523547E+03  0.77265689753E+01  0.21875183593E+03  0.17295782802E+03 0.  0.
        -24    2    5    5    0    0  0.12469255332E+02 -0.97462525596E+02 -0.56487495430E+02  0.13912896150E+03  0.80694513841E+02 0.  0.
          5    1    3    3  501    0 -0.23038628282E+02  0.40615839553E+02 -0.13340064459E+03  0.14141515758E+03  0.47000000000E+01 0. -1.
        -11    1    4    4    0    0 -0.51353016481E+02  0.27184358606E+02 -0.12894867246E+02  0.59518058233E+02  0.00000000000E+00 0.  1.
         12    1    4    4    0    0  0.22919288654E+02  0.55605037312E+02 -0.19272248118E+02  0.63155629317E+02  0.00000000000E+00 0. -1.
         -5    1    5    5    0  502  0.39003100776E+02 -0.25942709874E+02  0.64214064405E+02  0.79622874435E+02  0.47000000000E+01 0.  1.
         13    1    6    6    0    0  0.30159622372E+02 -0.74197380384E+02 -0.54033352259E+01  0.80274841071E+02  0.00000000000E+00 0. -1.
        -14    1    6    6    0    0 -0.17690367039E+02 -0.23265145212E+02 -0.51084160204E+02  0.58854120429E+02  0.00000000000E+00 0.  1.
</event>
<event>
12    1  0.1596842E-001  0.2186322E+03  0.7818608E-02  0.1135890E+00
         21   -1    0    0  503  502  0.00000000000E+00  0.00000000000E+00  0.14721517250E+03  0.14721517250E+03  0.00000000000E+00 0.  1.
         21   -1    0    0  501  503 -0.00000000000E+00 -0.00000000000E+00 -0.32253463097E+03  0.32253463097E+03  0.00000000000E+00 0. -1.
          6    2    1    2  501    0  0.12799658997E+03 -0.39585925292E+02 -0.11720671037E+03  0.24352619682E+03  0.16618490623E+03 0.  0.
         24    2    3    3    0    0  0.36082101521E+01 -0.37272611232E+02 -0.37538239393E+02  0.95718971956E+02  0.79691501725E+02 0.  0.
         -6    2    1    2    0  502 -0.12799658997E+03  0.39585925292E+02 -0.58112748103E+02  0.22622360665E+03  0.17277110925E+03 0.  0.
        -24    2    5    5    0    0 -0.84823621981E+02 -0.27131296274E+02  0.11665425178E+02  0.12036437803E+03  0.80127069526E+02 0.  0.
          5    1    3    3  501    0  0.12438837981E+03 -0.23133140605E+01 -0.79668470977E+02  0.14780722487E+03  0.47000000000E+01 0. -1.
        -13    1    4    4    0    0 -0.32559610410E+01 -0.18953274756E+02  0.24225753990E+02  0.30930810896E+02  0.00000000000E+00 0.  1.
         14    1    4    4    0    0  0.68641711931E+01 -0.18319336476E+02 -0.61763993383E+02  0.64788161061E+02  0.00000000000E+00 0. -1.
         -5    1    5    5    0  502 -0.43172967985E+02  0.66717221566E+02 -0.69778173280E+02  0.10585922862E+03  0.47000000000E+01 0.  1.
         11    1    6    6    0    0 -0.69905635768E+01 -0.17594015649E+02 -0.26967180286E+02  0.32949145336E+02  0.00000000000E+00 0. -1.
        -12    1    6    6    0    0 -0.77833058404E+02 -0.95372806250E+01  0.38632605464E+02  0.87415232696E+02  0.00000000000E+00 0.  1.
</event>
<event>
12    1  0.1596842E-001  0.2679640E+03  0.7818608E-02  0.1102509E+00
         21   -1    0    0  503  502  0.00000000000E+00  0.00000000000E+00  0.94654708809E+02  0.94654708809E+02  0.00000000000E+00 0.  1.
         21   -1    0    0  501  503 -0.00000000000E+00 -0.00000000000E+00 -0.82076198653E+03  0.82076198653E+03  0.00000000000E+00 0.  1.
          6    2    1    2  501    0  0.14308105440E+03 -0.14635531802E+03 -0.48992293323E+03  0.55822243567E+03  0.17232451928E+03 0.  0.
         24    2    3    3    0    0  0.17061933062E+03 -0.11493297236E+03 -0.44506531375E+03  0.49674059698E+03  0.79671469600E+02 0.  0.
         -6    2    1    2    0  502 -0.14308105440E+03  0.14635531802E+03 -0.23618434449E+03  0.35719425967E+03  0.17295267362E+03 0.  0.
        -24    2    5    5    0    0 -0.49464779686E+02  0.51110021901E+01 -0.10956613241E+03  0.14560922882E+03  0.82002581503E+02 0.  0.
          5    1    3    3  501    0 -0.27538276214E+02 -0.31422345670E+02 -0.44857619479E+02  0.61481838697E+02  0.47000000000E+01 0. -1.
        -13    1    4    4    0    0  0.82622211743E+02 -0.66129191310E+02 -0.31495783249E+03  0.33226184864E+03  0.00000000000E+00 0.  1.
         14    1    4    4    0    0  0.87997118872E+02 -0.48803781045E+02 -0.13010748126E+03  0.16447874834E+03  0.00000000000E+00 0. -1.
         -5    1    5    5    0  502 -0.93616274715E+02  0.14124431583E+03 -0.12661821208E+03  0.21158503085E+03  0.47000000000E+01 0.  1.
         11    1    6    6    0    0 -0.45141084442E+02  0.38886734841E+02 -0.84200549957E+02  0.10314857374E+03  0.00000000000E+00 0. -1.
        -12    1    6    6    0    0 -0.43236952440E+01 -0.33775732651E+02 -0.25365582453E+02  0.42460655080E+02  0.00000000000E+00 0.  1.
</event>
<event>
12    1  0.1596842E-001  0.2025325E+03  0.7818608E-02  0.1147790E+00
         21   -1    0    0  503  502  0.00000000000E+00  0.00000000000E+00  0.20288287684E+03  0.20288287684E+03  0.00000000000E+00 0. -1.
         21   -1    0    0  501  503 -0.00000000000E+00 -0.00000000000E+00 -0.34025990049E+03  0.34025990049E+03  0.00000000000E+00 0. -1.
          6    2    1    2  501    0 -0.86672286515E+02  0.62428744666E+02 -0.24227707374E+03  0.31578092507E+03  0.17207550309E+03 0.  0.
         24    2    3    3    0    0 -0.58831682497E+02 -0.17377598288E+02 -0.70257089370E+02  0.12405946922E+03  0.81801867392E+02 0.  0.
         -6    2    1    2    0  502  0.86672286515E+02 -0.62428744666E+02  0.10490005010E+03  0.22736185226E+03  0.17111387420E+03 0.  0.
        -24    2    5    5    0    0  0.15001667455E+02 -0.79135540494E+02  0.20513876760E+02  0.11529530545E+03  0.79904346091E+02 0.  0.
          5    1    3    3  501    0 -0.27840604018E+02  0.79806342954E+02 -0.17201998437E+03  0.19172145584E+03  0.47000000000E+01 0. -1.
        -13    1    4    4    0    0 -0.47552250359E+02 -0.31970727916E+02 -0.83559360928E+02  0.10131885687E+03  0.00000000000E+00 0.  1.
         14    1    4    4    0    0 -0.11279432138E+02  0.14593129628E+02  0.13302271558E+02  0.22740612355E+02  0.00000000000E+00 0. -1.
         -5    1    5    5    0  502  0.71670619060E+02  0.16706795828E+02  0.84386173337E+02  0.11206654681E+03  0.47000000000E+01 0.  1.
         13    1    6    6    0    0  0.10645517226E+02 -0.73379370328E+02  0.47036237228E+02  0.87808123994E+02  0.00000000000E+00 0. -1.
        -14    1    6    6    0    0  0.43561502295E+01 -0.57561701663E+01 -0.26522360468E+02  0.27487181460E+02  0.00000000000E+00 0.  1.
</event>
<event>
12    1  0.1596842E-001  0.1834608E+03  0.7818608E-02  0.1164583E+00
         21   -1    0    0  503  502  0.00000000000E+00  0.00000000000E+00  0.55765200523E+02  0.55765200523E+02  0.00000000000E+00 0. -1.
         21   -1    0    0  501  503 -0.00000000000E+00 -0.00000000000E+00 -0.61885383636E+03  0.61885383636E+03  0.00000000000E+00 0.  1.
          6    2    1    2  501    0  0.52710560698E+02 -0.35363922388E+02 -0.33692497589E+03  0.38363564394E+03  0.17213035091E+03 0.  0.
         24    2    3    3    0    0  0.70376341543E+02 -0.26809472051E+02 -0.34714561532E+03  0.36101242791E+03  0.64407434585E+02 0.  0.
         -6    2    1    2    0  502 -0.52710560698E+02  0.35363922388E+02 -0.22616365994E+03  0.29098339294E+03  0.17173329227E+03 0.  0.
        -24    2    5    5    0    0 -0.29784970119E+02 -0.47241162526E+02 -0.12841455685E+03  0.16088281680E+03  0.79209282594E+02 0.  0.
          5    1    3    3  501    0 -0.17665780845E+02 -0.85544503361E+01  0.10220639423E+02  0.22623216032E+02  0.47000000000E+01 0. -1.
        -11    1    4    4    0    0  0.40023027686E+02 -0.37047270665E+02 -0.29355212759E+03  0.29857527463E+03  0.00000000000E+00 0.  1.
         12    1    4    4    0    0  0.30353313857E+02  0.10237798613E+02 -0.53593487727E+02  0.62437153277E+02  0.00000000000E+00 0. -1.
         -5    1    5    5    0  502 -0.22925590578E+02  0.82605084913E+02 -0.97749103092E+02  0.13010057614E+03  0.47000000000E+01 0.  1.
         13    1    6    6    0    0 -0.50854570277E+02 -0.67873926047E+01 -0.67869120811E+02  0.85079219414E+02  0.00000000000E+00 0. -1.
        -14    1    6    6    0    0  0.21069600158E+02 -0.40453769921E+02 -0.60545436037E+02  0.75803597385E+02  0.00000000000E+00 0.  1.
</event>
<event>
12    1  0.1596842E-001  0.1862323E+03  0.7818608E-02  0.1162030E+00
         21   -1    0    0  501  502  0.00000000000E+00  0.00000000000E+00  0.26562530872E+03  0.26562530872E+03  0.00000000000E+00 0. -1.
         21   -1    0    0  502  503 -0.00000000000E+00 -0.00000000000E+00 -0.18064671973E+03  0.18064671973E+03  0.00000000000E+00 0. -1.
         -6    2    1    2    0  503 -0.66883712115E+02  0.23519519922E+02 -0.75483369955E+02  0.20044588105E+03  0.17162229846E+03 0.  0.
        -24    2    3    3    0    0 -0.43728348699E+02 -0.29093385562E+02 -0.99179745076E+02  0.13809287894E+03  0.80463829252E+02 0.  0.
          6    2    1    2  501    0  0.66883712115E+02 -0.23519519922E+02  0.16046195894E+03  0.24582614739E+03  0.17220875619E+03 0.  0.
         24    2    5    5    0    0  0.48967207271E+02  0.27121687573E+02  0.23708665400E+02  0.98825853728E+02  0.77917104831E+02 0.  0.
          5    1    5    5  501    0  0.17916504844E+02 -0.50641207496E+02  0.13675329354E+03  0.14700029366E+03  0.47000000000E+01 0. -1.
        -13    1    6    6    0    0  0.73673422853E+01  0.45576526587E+02  0.26495899715E+02  0.53230914042E+02  0.00000000000E+00 0.  1.
         14    1    6    6    0    0  0.41599864986E+02 -0.18454839013E+02 -0.27872343147E+01  0.45594939686E+02  0.00000000000E+00 0. -1.
         -5    1    3    3    0  503 -0.23155363417E+02  0.52612905484E+02  0.23696375121E+02  0.62353002112E+02  0.47000000000E+01 0.  1.
         11    1    4    4    0    0 -0.16344062949E+02 -0.47613135935E+02 -0.91065034723E+02  0.10405277342E+03  0.00000000000E+00 0. -1.
        -12    1    4    4    0    0 -0.27384285750E+02  0.18519750373E+02 -0.81147103537E+01  0.34040105523E+02  0.00000000000E+00 0.  1.
</event>
<event>
12    1  0.1596842E-001  0.2023202E+03  0.7818608E-02  0.1148033E+00
         21   -1    0    0  503  502  0.00000000000E+00  0.00000000000E+00  0.21868328884E+03  0.21868328884E+03  0.00000000000E+00 0.  1.
         21   -1    0    0  501  503 -0.00000000000E+00 -0.00000000000E+00 -0.23067013441E+03  0.23067013441E+03  0.00000000000E+00 0.  1.
          6    2    1    2  501    0  0.56579068131E+02 -0.87858727532E+02 -0.10470495145E+03  0.22679984011E+03  0.17191478605E+03 0.  0.
         24    2    3    3    0    0  0.30673392090E+02 -0.62925603551E+02 -0.13998613898E+03  0.17620718337E+03  0.80946672584E+02 0.  0.
         -6    2    1    2    0  502 -0.56579068131E+02  0.87858727532E+02  0.92718105880E+02  0.22255358313E+03  0.17324290246E+03 0.  0.
        -24    2    5    5    0    0  0.25127827591E+01  0.11331887725E+03  0.67336336462E+02  0.15322544827E+03  0.78079278748E+02 0.  0.
          5    1    3    3  501    0  0.25905676041E+02 -0.24933123981E+02  0.35281187525E+02  0.50592656738E+02  0.47000000000E+01 0. -1.
        -11    1    4    4    0    0  0.70461409574E+01 -0.36581688006E+02 -0.13551052915E+03  0.14053814967E+03  0.00000000000E+00 0.  1.
         12    1    4    4    0    0  0.23627251133E+02 -0.26343915545E+02 -0.44756098211E+01  0.35669033707E+02  0.00000000000E+00 0. -1.
         -5    1    5    5    0  502 -0.59091850891E+02 -0.25460149718E+02  0.25381769418E+02  0.69328134867E+02  0.47000000000E+01 0.  1.
         11    1    6    6    0    0 -0.24477732015E+02  0.16275807453E+02 -0.41823561004E+01  0.29690964541E+02  0.00000000000E+00 0. -1.
        -12    1    6    6    0    0  0.26990514774E+02  0.97043069797E+02  0.71518692563E+02  0.12353448373E+03  0.00000000000E+00 0.  1.
</event>
<event>
12    1  0.1596842E-001  0.2101442E+03  0.7818608E-02  0.1141585E+00
         21   -1    0    0  501  502  0.00000000000E+00  0.00000000000E+00  0.67568185831E+03  0.67568185831E+03  0.00000000000E+00 0. -1.
         21   -1    0    0  502  503 -0.00000000000E+00 -0.00000000000E+00 -0.95912725885E+02  0.95912725885E+02  0.00000000000E+00 0. -1.
         -6    2    1    2    0  503  0.75999657667E+02  0.94589243763E+02  0.71074978128E+02  0.22120352289E+03  0.17075208058E+03 0.  0.
        -24    2    3    3    0    0  0.98280346679E+02  0.58890104266E+02  0.57859011570E+00  0.13896795646E+03  0.78642782451E+02 0.  0.
          6    2    1    2  501    0 -0.75999657667E+02 -0.94589243763E+02  0.50869415430E+03  0.55039106130E+03  0.17157361320E+03 0.  0.
         24    2    5    5    0    0 -0.92861876220E+01 -0.70894250983E+02  0.15052054547E+03  0.18525743668E+03  0.80942295095E+02 0.  0.
          5    1    5    5  501    0 -0.66713470045E+02 -0.23694992780E+02  0.35817360883E+03  0.36513362462E+03  0.47000000000E+01 0. -1.
        -11    1    6    6    0    0 -0.44333200144E+02 -0.50554829271E+02  0.87883288133E+02  0.11065575326E+03  0.00000000000E+00 0.  1.
         12    1    6    6    0    0  0.35047012522E+02 -0.20339421712E+02  0.62637257335E+02  0.74601683417E+02  0.00000000000E+00 0. -1.
         -5    1    3    3    0  503 -0.22280689013E+02  0.35699139497E+02  0.70496388012E+02  0.82235566433E+02  0.47000000000E+01 0.  1.
         11    1    4    4    0    0  0.68134413698E+02  0.23567669354E+02  0.35980427549E+02  0.80574962211E+02  0.00000000000E+00 0. -1.
        -12    1    4    4    0    0  0.30145932982E+02  0.35322434911E+02 -0.35401837433E+02  0.58392994246E+02  0.00000000000E+00 0.  1.
</event>
<event>
12    1  0.1596842E-001  0.1997889E+03  0.7818608E-02  0.1149954E+00
         21   -1    0    0  501  502  0.00000000000E+00  0.00000000000E+00  0.41273099430E+03  0.41273099430E+03  0.00000000000E+00 0. -1.
         21   -1    0    0  502  503 -0.00000000000E+00 -0.00000000000E+00 -0.10804973294E+03  0.10804973294E+03  0.00000000000E+00 0. -1.
         -6    2    1    2    0  503 -0.10205322546E+03 -0.95101150891E+01  0.67733992436E+02  0.21095852998E+03  0.17149432797E+03 0.  0.
        -24    2    3    3    0    0 -0.10231457020E+03  0.29117306970E+02  0.94238625112E+02  0.16387635088E+03  0.81599332548E+02 0.  0.
          6    2    1    2  501    0  0.10205322546E+03  0.95101150891E+01  0.23694726893E+03  0.30982219726E+03  0.17129063766E+03 0.  0.
         24    2    5    5    0    0  0.43634646061E+01  0.43276647183E+01  0.17842880147E+03  0.19573167092E+03  0.80226437678E+02 0.  0.
          5    1    5    5  501    0  0.97689760849E+02  0.51824503708E+01  0.58518467455E+02  0.11409052634E+03  0.47000000000E+01 0. -1.
        -13    1    6    6    0    0  0.26995888522E+02  0.23389765175E+02  0.37733595556E+02  0.51958477130E+02  0.00000000000E+00 0.  1.
         14    1    6    6    0    0 -0.22632423916E+02 -0.19062100457E+02  0.14069520591E+03  0.14377319379E+03  0.00000000000E+00 0. -1.
         -5    1    3    3    0  503  0.26134474674E+00 -0.38627422060E+02 -0.26504632676E+02  0.47082179106E+02  0.47000000000E+01 0.  1.
         11    1    4    4    0    0 -0.11583079128E+03  0.22355567088E+02  0.89369464294E+02  0.14799812410E+03  0.00000000000E+00 0. -1.
        -12    1    4    4    0    0  0.13516221079E+02  0.67617398820E+01  0.48691608184E+01  0.15878226776E+02  0.00000000000E+00 0.  1.
</event>
<event>
12    1  0.1596842E-001  0.2094824E+03  0.7818608E-02  0.1142920E+00
         21   -1    0    0  501  502  0.00000000000E+00  0.00000000000E+00  0.10381079822E+03  0.10381079822E+03  0.00000000000E+00 0.  1.
         21   -1    0    0  502  503 -0.00000000000E+00 -0.00000000000E+00 -0.93360382844E+03  0.93360382844E+03  0.00000000000E+00 0.  1.
         -6    2    1    2    0  503  0.41649422608E+02  0.11238541319E+03 -0.80003424566E+03  0.82582904117E+03  0.16605317071E+03 0.  0.
        -24    2    3    3    0    0  0.45376458929E+02  0.68566345125E+01 -0.26003021007E+03  0.27557758739E+03  0.78874964726E+02 0.  0.
          6    2    1    2  501    0 -0.41649422608E+02 -0.11238541319E+03 -0.29758784562E+02  0.21158558549E+03  0.17180721530E+03 0.  0.
         24    2    5    5    0    0  0.18638743247E+01 -0.10519228133E+02 -0.56286518380E+02  0.97585860362E+02  0.78998099998E+02 0.  0.
          5    1    5    5  501    0 -0.43513296933E+02 -0.10186618506E+03  0.26527733818E+02  0.11399972513E+03  0.47000000000E+01 0. -1.
        -13    1    6    6    0    0  0.27402583139E+02 -0.32557590314E+02 -0.17052964509E+02  0.45844321876E+02  0.00000000000E+00 0.  1.
         14    1    6    6    0    0 -0.25538708814E+02  0.22038362181E+02 -0.39233553870E+02  0.51741538485E+02  0.00000000000E+00 0. -1.
         -5    1    3    3    0  503 -0.37270363207E+01  0.10552877868E+03 -0.54000403559E+03  0.55025145378E+03  0.47000000000E+01 0.  1.
         11    1    4    4    0    0 -0.16767334745E+02 -0.12227420164E+02 -0.11193589374E+03  0.11384330295E+03  0.00000000000E+00 0. -1.
        -12    1    4    4    0    0  0.62143793674E+02  0.19084054676E+02 -0.14809431633E+03  0.16173428444E+03  0.00000000000E+00 0.  1.
</event>
<event>
12    1  0.1596842E-001  0.1785549E+03  0.7818608E-02  0.1169396E+00
         21   -1    0    0  503  502  0.00000000000E+00  0.00000000000E+00  0.49590086708E+03  0.49590086708E+03  0.00000000000E+00 0. -1.
         21   -1    0    0  501  503 -0.00000000000E+00 -0.00000000000E+00 -0.82286866787E+02  0.82286866787E+02  0.00000000000E+00 0. -1.
          6    2    1    2  501    0 -0.45098044000E+00 -0.47762823925E+02  0.70238774585E+02  0.19116266509E+03  0.17125474690E+03 0.  0.
         24    2    3    3    0    0  0.49441428389E+02 -0.90429884811E+00  0.14232390110E+02  0.10259755383E+03  0.88760489663E+02 0.  0.
         -6    2    1    2    0  502  0.45098044000E+00  0.47762823925E+02  0.34337522570E+03  0.38702506878E+03  0.17204757336E+03 0.  0.
        -24    2    5    5    0    0  0.58709913029E+02 -0.34184071653E+01  0.21572376453E+03  0.23759077826E+03  0.80337388150E+02 0.  0.
          5    1    3    3  501    0 -0.49892408829E+02 -0.46858525077E+02  0.56006384475E+02  0.88565111264E+02  0.47000000000E+01 0. -1.
        -13    1    4    4    0    0  0.55975666189E+02  0.27602970811E+02  0.30136249043E+02  0.69306512748E+02  0.00000000000E+00 0.  1.
         14    1    4    4    0    0 -0.65342378004E+01 -0.28507269659E+02 -0.15903858933E+02  0.33291041077E+02  0.00000000000E+00 0. -1.
         -5    1    5    5    0  502 -0.58258932589E+02  0.51181231090E+02  0.12765146118E+03  0.14943429052E+03  0.47000000000E+01 0.  1.
         13    1    6    6    0    0  0.99958162400E+01  0.18370423946E+02  0.15641776877E+03  0.15780971835E+03  0.00000000000E+00 0. -1.
        -14    1    6    6    0    0  0.48714096789E+02 -0.21788831111E+02  0.59305995758E+02  0.79781059908E+02  0.00000000000E+00 0.  1.
</event>
<event>
12    1  0.1596842E-001  0.2833634E+03  0.7818608E-02  0.1093928E+00
         21   -1    0    0  501  502  0.00000000000E+00  0.00000000000E+00  0.14113058704E+04  0.14113058704E+04  0.00000000000E+00 0.  1.
         21   -1    0    0  502  503 -0.00000000000E+00 -0.00000000000E+00 -0.19965745250E+03  0.19965745250E+03  0.00000000000E+00 0. -1.
         -6    2    1    2    0  503  0.46961539539E+02 -0.21943417869E+03 -0.75653086554E+02  0.29284346546E+03  0.17227060337E+03 0.  0.
        -24    2    3    3    0    0  0.14977235552E+02 -0.71124180035E+02  0.24468042632E+02  0.11100512541E+03  0.80252639750E+02 0.  0.
          6    2    1    2  501    0 -0.46961539539E+02  0.21943417869E+03  0.12873015044E+04  0.13181198574E+04  0.17302615469E+03 0.  0.
         24    2    5    5    0    0  0.17712443908E+02  0.15264321206E+03  0.59569677537E+03  0.62027822163E+03  0.79225899740E+02 0.  0.
          5    1    5    5  501    0 -0.64673983447E+02  0.66790966632E+02  0.69160472908E+03  0.69784163579E+03  0.47000000000E+01 0. -1.
        -11    1    6    6    0    0 -0.17760789708E+02  0.98033309597E+02  0.44664917543E+03  0.45762589672E+03  0.00000000000E+00 0.  1.
         12    1    6    6    0    0  0.35473233616E+02  0.54609902462E+02  0.14904759994E+03  0.16265232491E+03  0.00000000000E+00 0. -1.
         -5    1    3    3    0  503  0.31984303987E+02 -0.14830999866E+03 -0.10012112919E+03  0.18183834005E+03  0.47000000000E+01 0.  1.
         13    1    4    4    0    0  0.13407236441E+02 -0.87220858551E+02  0.91312869022E+01  0.88716472855E+02  0.00000000000E+00 0. -1.
        -14    1    4    4    0    0  0.15699991113E+01  0.16096678516E+02  0.15336755729E+02  0.22288652556E+02  0.00000000000E+00 0.  1.
</event>
<event>
12    1  0.1596842E-001  0.3585876E+03  0.7818608E-02  0.1059182E+00
         21   -1    0    0  503  502  0.00000000000E+00  0.00000000000E+00  0.31554370714E+03  0.31554370714E+03  0.00000000000E+00 0.  1.
         21   -1    0    0  501  503 -0.00000000000E+00 -0.00000000000E+00 -0.52718854458E+03  0.52718854458E+03  0.00000000000E+00 0.  1.
          6    2    1    2  501    0 -0.19346861170E+02  0.31363141903E+03 -0.30699281445E+03  0.47204834198E+03  0.17276018351E+03 0.  0.
         24    2    3    3    0    0  0.18254153445E+02  0.16292398958E+03 -0.86021547783E+02  0.20190586794E+03  0.80553288739E+02 0.  0.
         -6    2    1    2    0  502  0.19346861170E+02 -0.31363141903E+03  0.95347977009E+02  0.37068390973E+03  0.17197777815E+03 0.  0.
        -24    2    5    5    0    0 -0.22930374342E+02 -0.29855480980E+03  0.66209783022E+02  0.31696433102E+03  0.80136603684E+02 0.  0.
          5    1    3    3  501    0 -0.37601014614E+02  0.15070742945E+03 -0.22097126666E+03  0.27014247404E+03  0.47000000000E+01 0. -1.
        -13    1    4    4    0    0  0.20766830539E+02  0.10223812823E+03 -0.94272556498E+02  0.14061013841E+03  0.00000000000E+00 0.  1.
         14    1    4    4    0    0 -0.25126770939E+01  0.60685861345E+02  0.82510087155E+01  0.61295729527E+02  0.00000000000E+00 0. -1.
         -5    1    5    5    0  502  0.42277235512E+02 -0.15076609232E+02  0.29138193987E+02  0.53719578715E+02  0.47000000000E+01 0.  1.
         11    1    6    6    0    0  0.30188797226E+02 -0.11295814992E+03  0.25312968114E+02  0.11963132310E+03  0.00000000000E+00 0. -1.
        -12    1    6    6    0    0 -0.53119171569E+02 -0.18559665988E+03  0.40896814908E+02  0.19733300792E+03  0.00000000000E+00 0.  1.
</event>
<event>
12    1  0.1596842E-001  0.3417416E+03  0.7818608E-02  0.1066465E+00
         21   -1    0    0  501  502  0.00000000000E+00  0.00000000000E+00  0.37998420280E+03  0.37998420280E+03  0.00000000000E+00 0.  1.
         21   -1    0    0  502  503 -0.00000000000E+00 -0.00000000000E+00 -0.77440496127E+03  0.77440496127E+03  0.00000000000E+00 0. -1.
         -6    2    1    2    0  503  0.28150574458E+03 -0.79232410844E+02 -0.64754388966E+03  0.73218875972E+03  0.17681637838E+03 0.  0.
        -24    2    3    3    0    0  0.18426819412E+03  0.11358869760E+02 -0.31237045841E+03  0.37159863180E+03  0.80165133178E+02 0.  0.
          6    2    1    2  501    0 -0.28150574458E+03  0.79232410844E+02  0.25312313119E+03  0.42220040435E+03  0.16928851920E+03 0.  0.
         24    2    5    5    0    0 -0.19512848295E+03  0.30336673831E+02  0.24096652950E+03  0.32209197619E+03  0.81749214966E+02 0.  0.
          5    1    5    5  501    0 -0.86377261629E+02  0.48895737013E+02  0.12156601684E+02  0.10010842816E+03  0.47000000000E+01 0. -1.
        -11    1    6    6    0    0 -0.17573060230E+03  0.47258926754E+02  0.23195542690E+03  0.29481853879E+03  0.00000000000E+00 0.  1.
         12    1    6    6    0    0 -0.19397880646E+02 -0.16922252923E+02  0.90111025987E+01  0.27273437400E+02  0.00000000000E+00 0. -1.
         -5    1    3    3    0  503  0.97237550457E+02 -0.90591280604E+02 -0.33517343125E+03  0.36059012792E+03  0.47000000000E+01 0.  1.
         13    1    4    4    0    0  0.11713663220E+03 -0.12264707236E+02 -0.25242444336E+03  0.27854894229E+03  0.00000000000E+00 0. -1.
        -14    1    4    4    0    0  0.67131561924E+02  0.23623576996E+02 -0.59946015054E+02  0.93049689506E+02  0.00000000000E+00 0.  1.
</event>
<event>
12    1  0.1596842E-001  0.1756638E+03  0.7818608E-02  0.1172254E+00
         21   -1    0    0  503  502  0.00000000000E+00  0.00000000000E+00  0.47996577380E+02  0.47996577380E+02  0.00000000000E+00 0.  1.
         21   -1    0    0  501  503 -0.00000000000E+00 -0.00000000000E+00 -0.22021447370E+04  0.22021447370E+04  0.00000000000E+00 0.  1.
          6    2    1    2  501    0 -0.27191625703E+02 -0.21834830196E+01 -0.20252677342E+04  0.20328716546E+04  0.17353275474E+03 0.  0.
         24    2    3    3    0    0 -0.76058210217E+02  0.18340525978E+02 -0.16570428294E+04  0.16608221303E+04  0.80112320523E+02 0.  0.
         -6    2    1    2    0  502  0.27191625703E+02  0.21834830196E+01 -0.12888042541E+03  0.21726965973E+03  0.17277670235E+03 0.  0.
        -24    2    5    5    0    0 -0.62881624358E+01  0.11847006222E+02 -0.15389054305E+03  0.17412019995E+03  0.80347073669E+02 0.  0.
          5    1    3    3  501    0  0.48866584515E+02 -0.20524008998E+02 -0.36822490477E+03  0.37204952429E+03  0.47000000000E+01 0. -1.
        -11    1    4    4    0    0 -0.25660996276E+02  0.29026184743E+02 -0.26406640500E+03  0.26689337268E+03  0.00000000000E+00 0.  1.
         12    1    4    4    0    0 -0.50397213941E+02 -0.10685658764E+02 -0.13929764244E+04  0.13939287577E+04  0.00000000000E+00 0. -1.
         -5    1    5    5    0  502  0.33479788138E+02 -0.96635232026E+01  0.25010117640E+02  0.43149459775E+02  0.47000000000E+01 0.  1.
         13    1    6    6    0    0 -0.30517195485E+02  0.29075383821E+02 -0.12777871225E+03  0.13455138970E+03  0.00000000000E+00 0. -1.
        -14    1    6    6    0    0  0.24229033049E+02 -0.17228377599E+02 -0.26111830798E+02  0.39568810253E+02  0.00000000000E+00 0.  1.
</event>
<event>
12    1  0.1596842E-001  0.2490335E+03  0.7818608E-02  0.1114261E+00
         21   -1    0    0  503  502  0.00000000000E+00  0.00000000000E+00  0.93747746596E+02  0.93747746596E+02  0.00000000000E+00 0. -1.
         21   -1    0    0  501  503 -0.00000000000E+00 -0.00000000000E+00 -0.14757027354E+04  0.14757027354E+04  0.00000000000E+00 0.  1.
          6    2    1    2  501    0  0.86381800047E+02 -0.15782745039E+03 -0.12772241830E+04  0.13012760326E+04  0.17218124141E+03 0.  0.
         24    2    3    3    0    0  0.69217752861E+02 -0.18414950671E+03 -0.10051184284E+04  0.10273214983E+04  0.80151529409E+02 0.  0.
         -6    2    1    2    0  502 -0.86381800047E+02  0.15782745039E+03 -0.10473080581E+03  0.26817444940E+03  0.16904932461E+03 0.  0.
        -24    2    5    5    0    0 -0.71902157654E+01  0.38022197231E+02 -0.72174736755E+02  0.12084287323E+03  0.88861806759E+02 0.  0.
          5    1    3    3  501    0  0.17164047186E+02  0.26322056319E+02 -0.27210575463E+03  0.27395453431E+03  0.47000000000E+01 0. -1.
        -11    1    4    4    0    0 -0.12604025398E+01 -0.87250235183E+02 -0.31425768445E+03  0.32614733540E+03  0.00000000000E+00 0.  1.
         12    1    4    4    0    0  0.70478155401E+02 -0.96899271522E+02 -0.69086074391E+03  0.70117416288E+03  0.00000000000E+00 0. -1.
         -5    1    5    5    0  502 -0.79191584282E+02  0.11980525316E+03 -0.32556069054E+02  0.14733157617E+03  0.47000000000E+01 0.  1.
         11    1    6    6    0    0 -0.13273254141E+02  0.47850651112E+02 -0.19737445608E+01  0.49696677504E+02  0.00000000000E+00 0. -1.
        -12    1    6    6    0    0  0.60830383755E+01 -0.98284538813E+01 -0.70200992194E+02  0.71146195728E+02  0.00000000000E+00 0.  1.
</event>
<event>
12    1  0.1596842E-001  0.2446285E+03  0.7818608E-02  0.1117809E+00
         21   -1    0    0  503  502  0.00000000000E+00  0.00000000000E+00  0.26192310374E+03  0.26192310374E+03  0.00000000000E+00 0.  1.
         21   -1    0    0  501  503 -0.00000000000E+00 -0.00000000000E+00 -0.22279311494E+03  0.22279311494E+03  0.00000000000E+00 0. -1.
          6    2    1    2  501    0  0.13925131921E+03 -0.87054894726E+02  0.10520270827E+02  0.23842041947E+03  0.17252285566E+03 0.  0.
         24    2    3    3    0    0  0.51748349279E+02 -0.63048098393E+02  0.70024636557E+02  0.12981123221E+03  0.72763671697E+02 0.  0.
         -6    2    1    2    0  502 -0.13925131921E+03  0.87054894726E+02  0.28609717971E+02  0.24629579921E+03  0.18131083847E+03 0.  0.
        -24    2    5    5    0    0 -0.11233373767E+03  0.80719750677E+02 -0.46495134689E+02  0.16612398908E+03  0.79377801868E+02 0.  0.
          5    1    3    3  501    0  0.87502969928E+02 -0.24006796333E+02 -0.59504365729E+02  0.10860918726E+03  0.47000000000E+01 0. -1.
        -11    1    4    4    0    0  0.11239406088E+02 -0.15171429151E+02 -0.15031545522E+02  0.24133873963E+02  0.00000000000E+00 0.  1.
         12    1    4    4    0    0  0.40508943191E+02 -0.47876669242E+02  0.85056182079E+02  0.10567735825E+03  0.00000000000E+00 0. -1.
         -5    1    5    5    0  502 -0.26917581535E+02  0.63351440488E+01  0.75104852660E+02  0.80171810126E+02  0.47000000000E+01 0.  1.
         11    1    6    6    0    0 -0.86772548166E+02  0.69699918688E+02  0.73472737448E+00  0.11130181312E+03  0.00000000000E+00 0. -1.
        -12    1    6    6    0    0 -0.25561189506E+02  0.11019831989E+02 -0.47229862064E+02  0.54822175956E+02  0.00000000000E+00 0.  1.
</event>
<event>
12    1  0.1596842E-001  0.1770027E+03  0.7818608E-02  0.1170840E+00
         21   -1    0    0  503  502  0.00000000000E+00  0.00000000000E+00  0.69060606331E+03  0.69060606331E+03  0.00000000000E+00 0.  1.
         21   -1    0    0  501  503 -0.00000000000E+00 -0.00000000000E+00 -0.51976383677E+02  0.51976383677E+02  0.00000000000E+00 0.  1.
          6    2    1    2  501    0 -0.41730713830E+02 -0.92672105102E+01  0.18615444700E+03  0.25687243481E+03  0.17176331378E+03 0.  0.
         24    2    3    3    0    0 -0.70906745023E+02 -0.19905258236E+02  0.19674946785E+03  0.22372498661E+03  0.76931987740E+02 0.  0.
         -6    2    1    2    0  502  0.41730713830E+02  0.92672105102E+01  0.45247523263E+03  0.48571001217E+03  0.17132730697E+03 0.  0.
        -24    2    5    5    0    0  0.19424267477E+02  0.11316881062E+02  0.45508501305E+03  0.46267352693E+03  0.80368211724E+02 0.  0.
          5    1    3    3  501    0  0.29176031193E+02  0.10638047726E+02 -0.10595020852E+02  0.33147448204E+02  0.47000000000E+01 0. -1.
        -11    1    4    4    0    0 -0.29054695778E+01 -0.33159639265E+02  0.38006377249E+02  0.50522154955E+02  0.00000000000E+00 0.  1.
         12    1    4    4    0    0 -0.68001275445E+02  0.13254381029E+02  0.15874309060E+03  0.17320283165E+03  0.00000000000E+00 0. -1.
         -5    1    5    5    0  502  0.22306446353E+02 -0.20496705514E+01 -0.26097804223E+01  0.23036485238E+02  0.47000000000E+01 0.  1.
         13    1    6    6    0    0  0.48257594096E+02  0.24811907241E+01  0.19732363621E+03  0.20315405264E+03  0.00000000000E+00 0. -1.
        -14    1    6    6    0    0 -0.28833326619E+02  0.88356903375E+01  0.25776137684E+03  0.25951947429E+03  0.00000000000E+00 0.  1.
</event>
<event>
12    1  0.1596842E-001  0.3057733E+03  0.7818608E-02  0.1082749E+00
         21   -1    0    0  503  502  0.00000000000E+00  0.00000000000E+00  0.78198798493E+03  0.78198798493E+03  0.00000000000E+00 0. -1.
         21   -1    0    0  501  503 -0.00000000000E+00 -0.00000000000E+00 -0.16474338601E+03  0.16474338601E+03  0.00000000000E+00 0.  1.
          6    2    1    2  501    0  0.21791589344E+03 -0.12100165179E+03  0.56549493422E+02  0.30807944154E+03  0.17200686249E+03 0.  0.
         24    2    3    3    0    0  0.47889559084E+02 -0.26675571798E+01 -0.42177539744E+00  0.93184751536E+02  0.79891766120E+02 0.  0.
         -6    2    1    2    0  502 -0.21791589344E+03  0.12100165179E+03  0.56069510550E+03  0.63865192940E+03  0.17711168579E+03 0.  0.
        -24    2    5    5    0    0 -0.21426957981E+02  0.48524458670E+02  0.14407117946E+03  0.17232754549E+03  0.78272220908E+02 0.  0.
          5    1    3    3  501    0  0.17002633436E+03 -0.11833409461E+03  0.56971268819E+02  0.21489469001E+03  0.47000000000E+01 0. -1.
        -11    1    4    4    0    0  0.45972307285E+02 -0.30742489168E+02 -0.20103307181E+02  0.58844682317E+02  0.00000000000E+00 0.  1.
         12    1    4    4    0    0  0.19172517994E+01  0.28074931989E+02  0.19681531784E+02  0.34340069219E+02  0.00000000000E+00 0. -1.
         -5    1    5    5    0  502 -0.19648893546E+03  0.72477193123E+02  0.41662392604E+03  0.46632438391E+03  0.47000000000E+01 0.  1.
         13    1    6    6    0    0 -0.55670090546E+01 -0.13230518041E+02  0.82337225366E+02  0.83579045690E+02  0.00000000000E+00 0. -1.
        -14    1    6    6    0    0 -0.15859948926E+02  0.61754976712E+02  0.61733954095E+02  0.88748499800E+02  0.00000000000E+00 0.  1.
</event>
<event>
12    1  0.1596842E-001  0.1792329E+03  0.7818608E-02  0.1168589E+00
         21   -1    0    0  501  502  0.00000000000E+00  0.00000000000E+00  0.10286174147E+04  0.10286174147E+04  0.00000000000E+00 0. -1.
         21   -1    0    0  502  503 -0.00000000000E+00 -0.00000000000E+00 -0.32061099104E+02  0.32061099104E+02  0.00000000000E+00 0. -1.
         -6    2    1    2    0  503  0.97406736753E+01  0.50950117298E+02  0.41120217451E+03  0.44849889530E+03  0.17138621759E+03 0.  0.
        -24    2    3    3    0    0 -0.44941321345E+02 -0.16776604442E+02  0.20271247814E+03  0.22251864636E+03  0.78236962888E+02 0.  0.
          6    2    1    2  501    0 -0.97406736753E+01 -0.50950117298E+02  0.58535414112E+03  0.61217961854E+03  0.17156229090E+03 0.  0.
         24    2    5    5    0    0 -0.61687864921E+02  0.17403256486E+01  0.39646142100E+03  0.40925760601E+03  0.80633171371E+02 0.  0.
          5    1    5    5  501    0  0.51947191246E+02 -0.52690442947E+02  0.18889272012E+03  0.20292201253E+03  0.47000000000E+01 0. -1.
        -11    1    6    6    0    0 -0.33864806456E+02  0.15473207778E+02  0.35758150224E+03  0.35951463951E+03  0.00000000000E+00 0.  1.
         12    1    6    6    0    0 -0.27823058465E+02 -0.13732882129E+02  0.38879918758E+02  0.49742966503E+02  0.00000000000E+00 0. -1.
         -5    1    3    3    0  503  0.54681995021E+02  0.67726721740E+02  0.20848969637E+03  0.22598024893E+03  0.47000000000E+01 0.  1.
         11    1    4    4    0    0  0.29776299868E+01 -0.23024973958E+02  0.14676675686E+03  0.14859171116E+03  0.00000000000E+00 0. -1.
        -12    1    4    4    0    0 -0.47918951332E+02  0.62483695161E+01  0.55945721289E+02  0.73926935206E+02  0.00000000000E+00 0.  1.
</event>
<event>
12    1  0.1596842E-001  0.2642398E+03  0.7818608E-02  0.1104691E+00
         21   -1    0    0  503  502  0.00000000000E+00  0.00000000000E+00  0.24195681472E+03  0.24195681472E+03  0.00000000000E+00 0.  1.
         21   -1    0    0  501  503 -0.00000000000E+00 -0.00000000000E+00 -0.33288593212E+03  0.33288593212E+03  0.00000000000E+00 0.  1.
          6    2    1    2  501    0 -0.16162423645E+03 -0.11997315544E+03 -0.15096210804E+03  0.30432259468E+03  0.17119209016E+03 0.  0.
         24    2    3    3    0    0 -0.11836127416E+03 -0.16118227852E+02 -0.43513887796E+02  0.14867960600E+03  0.77090714862E+02 0.  0.
         -6    2    1    2    0  502  0.16162423645E+03  0.11997315544E+03  0.60032990637E+02  0.27052015217E+03  0.17047357839E+03 0.  0.
        -24    2    5    5    0    0  0.15384252557E+03  0.14023444909E+03  0.18450971671E+02  0.22337962453E+03  0.78897369515E+02 0.  0.
          5    1    3    3  501    0 -0.43262962285E+02 -0.10385492759E+03 -0.10744822025E+03  0.15564298868E+03  0.47000000000E+01 0. -1.
        -11    1    4    4    0    0 -0.95126287069E+02 -0.42836178469E+02 -0.44106964887E+02  0.11326682228E+03  0.00000000000E+00 0.  1.
         12    1    4    4    0    0 -0.23234987095E+02  0.26717950616E+02  0.59307709052E+00  0.35412783721E+02  0.00000000000E+00 0. -1.
         -5    1    5    5    0  502  0.77817108778E+01 -0.20261293642E+02  0.41582018966E+02  0.47140527633E+02  0.47000000000E+01 0.  1.
         11    1    6    6    0    0  0.13745764383E+02 -0.68190298922E+01 -0.99648781853E+01  0.18296010614E+02  0.00000000000E+00 0. -1.
        -12    1    6    6    0    0  0.14009676119E+03  0.14705347898E+03  0.28415849857E+02  0.20508361392E+03  0.00000000000E+00 0.  1.
</event>
<event>
12    1  0.1596842E-001  0.2543564E+03  0.7818608E-02  0.1110698E+00
         21   -1    0    0  501  502  0.00000000000E+00  0.00000000000E+00  0.26245224126E+03  0.26245224126E+03  0.00000000000E+00 0. -1.
         21   -1    0    0  502  503 -0.00000000000E+00 -0.00000000000E+00 -0.30400657171E+03  0.30400657171E+03  0.00000000000E+00 0.  1.
         -6    2    1    2    0  503 -0.17950510409E+03 -0.51834034324E+02 -0.14474591734E+03  0.29265773917E+03  0.17259293787E+03 0.  0.
        -24    2    3    3    0    0 -0.12563446640E+03 -0.68936320340E+02 -0.32042717160E+02  0.16648866561E+03  0.78457024190E+02 0.  0.
          6    2    1    2  501    0  0.17950510409E+03  0.51834034324E+02  0.10319158689E+03  0.27380107380E+03  0.17149249226E+03 0.  0.
         24    2    5    5    0    0  0.17929374575E+03  0.60071064350E+02  0.39505009237E+02  0.20941191703E+03  0.80857437521E+02 0.  0.
          5    1    5    5  501    0  0.21135833880E+00 -0.82370300259E+01  0.63686577658E+02  0.64389156771E+02  0.47000000000E+01 0. -1.
        -11    1    6    6    0    0  0.89704321025E+02  0.83390336243E+01 -0.16777731778E+02  0.91640040244E+02  0.00000000000E+00 0.  1.
         12    1    6    6    0    0  0.89589424724E+02  0.51732030726E+02  0.56282741015E+02  0.11777187679E+03  0.00000000000E+00 0. -1.
         -5    1    3    3    0  503 -0.53870637685E+02  0.17102286016E+02 -0.11270320018E+03  0.12616907356E+03  0.47000000000E+01 0.  1.
         11    1    4    4    0    0 -0.10784529942E+03 -0.33732828292E+02  0.39852820877E+01  0.11306809800E+03  0.00000000000E+00 0. -1.
        -12    1    4    4    0    0 -0.17789166978E+02 -0.35203492048E+02 -0.36027999248E+02  0.53420567612E+02  0.00000000000E+00 0.  1.
</event>
<event>
12    1  0.1596842E-001  0.1896629E+03  0.7818608E-02  0.1159179E+00
         21   -1    0    0  503  502  0.00000000000E+00  0.00000000000E+00  0.95862648722E+02  0.95862648722E+02  0.00000000000E+00 0.  1.
         21   -1    0    0  501  503 -0.00000000000E+00 -0.00000000000E+00 -0.42165186018E+03  0.42165186018E+03  0.00000000000E+00 0. -1.
          6    2    1    2  501    0 -0.27307798982E+02  0.69974478390E+02 -0.25268337369E+03  0.31594447680E+03  0.17415476326E+03 0.  0.
         24    2    3    3    0    0  0.54374627323E+02  0.11325355371E+02 -0.11418579818E+03  0.14472705122E+03  0.69445367585E+02 0.  0.
         -6    2    1    2    0  502  0.27307798982E+02 -0.69974478390E+02 -0.73105837764E+02  0.20157003210E+03  0.17217395510E+03 0.  0.
        -24    2    5    5    0    0 -0.35715453136E+02  0.66255773281E+01 -0.29851947288E+02  0.93253422643E+02  0.80533038003E+02 0.  0.
          5    1    3    3  501    0 -0.81682426305E+02  0.58649123019E+02 -0.13849757551E+03  0.17121742558E+03  0.47000000000E+01 0. -1.
        -13    1    4    4    0    0  0.32475368313E+02  0.63335536938E-01 -0.50721838081E+01  0.32869143692E+02  0.00000000000E+00 0.  1.
         14    1    4    4    0    0  0.21899259009E+02  0.11262019835E+02 -0.10911361437E+03  0.11185790753E+03  0.00000000000E+00 0. -1.
         -5    1    5    5    0  502  0.63023252119E+02 -0.76600055718E+02 -0.43253890475E+02  0.10831660946E+03  0.47000000000E+01 0.  1.
         13    1    6    6    0    0 -0.15684246455E+02 -0.10147291708E+02 -0.54330009125E+02  0.57451832063E+02  0.00000000000E+00 0. -1.
        -14    1    6    6    0    0 -0.20031206681E+02  0.16772869036E+02  0.24478061836E+02  0.35801590580E+02  0.00000000000E+00 0.  1.
</event>
<event>
12    1  0.1596842E-001  0.2160307E+03  0.7818608E-02  0.1137044E+00
         21   -1    0    0  503  502  0.00000000000E+00  0.00000000000E+00  0.63262397250E+02  0.63262397250E+02  0.00000000000E+00 0. -1.
         21   -1    0    0  501  503 -0.00000000000E+00 -0.00000000000E+00 -0.75325308587E+03  0.75325308587E+03  0.00000000000E+00 0. -1.
          6    2    1    2  501    0 -0.13049206037E+03 -0.80168644199E+01 -0.40968873027E+03  0.46315667548E+03  0.17197907545E+03 0.  0.
         24    2    3    3    0    0  0.14432120491E+01 -0.33765412796E+02 -0.52659704829E+02  0.81631160129E+02  0.52425335755E+02 0.  0.
         -6    2    1    2    0  502  0.13049206037E+03  0.80168644199E+01 -0.28030195835E+03  0.35335880764E+03  0.17088244835E+03 0.  0.
        -24    2    5    5    0    0  0.13058281414E+03  0.58211392240E+02 -0.22112822118E+03  0.27562130042E+03  0.81418508377E+02 0.  0.
          5    1    3    3  501    0 -0.13193527242E+03  0.25748548376E+02 -0.35702902544E+03  0.38152551535E+03  0.47000000000E+01 0. -1.
        -11    1    4    4    0    0 -0.96811424216E+01 -0.41151168424E+02 -0.20858707329E+02  0.47140522405E+02  0.00000000000E+00 0.  1.
         12    1    4    4    0    0  0.11124354471E+02  0.73857556280E+01 -0.31800997500E+02  0.34490637724E+02  0.00000000000E+00 0. -1.
         -5    1    5    5    0  502 -0.90753775719E-01 -0.50194527820E+02 -0.59173737167E+02  0.77737507226E+02  0.47000000000E+01 0.  1.
         13    1    6    6    0    0  0.55570718191E+02 -0.11698055253E+02 -0.11381145288E+03  0.12719275146E+03  0.00000000000E+00 0. -1.
        -14    1    6    6    0    0  0.75012095952E+02  0.69909447493E+02 -0.10731676830E+03  0.14842854896E+03  0.00000000000E+00 0.  1.
</event>
<event>
12    1  0.1596842E-001  0.2416354E+03  0.7818608E-02  0.1119050E+00
         21   -1    0    0  501  502  0.00000000000E+00  0.00000000000E+00  0.14664977030E+03  0.14664977030E+03  0.00000000000E+00 0.  1.
         21   -1    0    0  502  503 -0.00000000000E+00 -0.00000000000E+00 -0.39642136146E+03  0.39642136146E+03  0.00000000000E+00 0.  1.
         -6    2    1    2    0  503  0.70980034254E+02 -0.15365034441E+03 -0.14300887907E+03  0.28078318258E+03  0.17245597272E+03 0.  0.
        -24    2    3    3    0    0 -0.13217355761E+00 -0.30034917110E+02 -0.89467314228E+02  0.12838072481E+03  0.87035030147E+02 0.  0.
          6    2    1    2  501    0 -0.70980034254E+02  0.15365034441E+03 -0.10676271210E+03  0.26228794918E+03  0.16955853853E+03 0.  0.
         24    2    5    5    0    0 -0.36332848861E+02  0.17658413928E+03 -0.81265601722E+02  0.21331265908E+03  0.79975986081E+02 0.  0.
          5    1    5    5  501    0 -0.34647185393E+02 -0.22933794864E+02 -0.25497110378E+02  0.48975290098E+02  0.47000000000E+01 0. -1.
        -13    1    6    6    0    0 -0.54120196220E+02  0.99113962143E+02 -0.70433806303E+02  0.13309205161E+03  0.00000000000E+00 0.  1.
         14    1    6    6    0    0  0.17787347358E+02  0.77470177136E+02 -0.10831795419E+02  0.80220607474E+02  0.00000000000E+00 0. -1.
         -5    1    3    3    0  503  0.71112207812E+02 -0.12361542730E+03 -0.53541564838E+02  0.15240245777E+03  0.47000000000E+01 0.  1.
         11    1    4    4    0    0  0.10339331136E+02  0.23170203743E+02 -0.19777630749E+01  0.25449394032E+02  0.00000000000E+00 0. -1.
        -12    1    4    4    0    0 -0.10471504693E+02 -0.53205120853E+02 -0.87489551153E+02  0.10293133078E+03  0.00000000000E+00 0.  1.
</event>
<event>
12    1  0.1596842E-001  0.2446762E+03  0.7818608E-02  0.1116854E+00
         21   -1    0    0  503  502  0.00000000000E+00  0.00000000000E+00  0.48252519294E+03  0.48252519294E+03  0.00000000000E+00 0. -1.
         21   -1    0    0  501  503 -0.00000000000E+00 -0.00000000000E+00 -0.19722466963E+03  0.19722466963E+03  0.00000000000E+00 0.  1.
          6    2    1    2  501    0  0.11496366079E+02  0.17291736310E+03  0.35040808814E+03  0.42737839777E+03  0.17272488457E+03 0.  0.
         24    2    3    3    0    0  0.13681496637E+02  0.10000045048E+02  0.12649166917E+03  0.15041724525E+03  0.79611689151E+02 0.  0.
         -6    2    1    2    0  502 -0.11496366079E+02 -0.17291736310E+03 -0.65107564832E+02  0.25237146480E+03  0.17152195298E+03 0.  0.
        -24    2    5    5    0    0  0.49416664486E+01 -0.13315565841E+03  0.20766323130E+02  0.15620693545E+03  0.78832208332E+02 0.  0.
          5    1    3    3  501    0 -0.21851305575E+01  0.16291731805E+03  0.22391641897E+03  0.27696115251E+03  0.47000000000E+01 0. -1.
        -11    1    4    4    0    0 -0.23684600379E+02 -0.95297460554E+01  0.93380934509E+02  0.96807929865E+02  0.00000000000E+00 0.  1.
         12    1    4    4    0    0  0.37366097016E+02  0.19529791103E+02  0.33110734660E+02  0.53609315389E+02  0.00000000000E+00 0. -1.
         -5    1    5    5    0  502 -0.16438032528E+02 -0.39761704686E+02 -0.85873887961E+02  0.96164529358E+02  0.47000000000E+01 0.  1.
         13    1    6    6    0    0 -0.20128033809E+02 -0.10846503591E+03 -0.82138778330E+01  0.11062219284E+03  0.00000000000E+00 0. -1.
        -14    1    6    6    0    0  0.25069700257E+02 -0.24690622505E+02  0.28980200963E+02  0.45584742606E+02  0.00000000000E+00 0.  1.
</event>
<event>
12    1  0.1596842E-001  0.2058726E+03  0.7818608E-02  0.1144967E+00
         21   -1    0    0  503  502  0.00000000000E+00  0.00000000000E+00  0.10070672863E+03  0.10070672863E+03  0.00000000000E+00 0.  1.
         21   -1    0    0  501  503 -0.00000000000E+00 -0.00000000000E+00 -0.77791896922E+03  0.77791896922E+03  0.00000000000E+00 0.  1.
          6    2    1    2  501    0  0.10603863003E+03 -0.36301264559E+02 -0.63641633723E+03  0.66874994083E+03  0.17215910142E+03 0.  0.
         24    2    3    3    0    0  0.10687429471E+03  0.26183200877E+02 -0.50292670774E+03  0.52128273113E+03  0.81809153122E+02 0.  0.
         -6    2    1    2    0  502 -0.10603863003E+03  0.36301264559E+02 -0.40795903371E+02  0.20987575702E+03  0.17268918550E+03 0.  0.
        -24    2    5    5    0    0 -0.47733469522E+01 -0.28805185159E+02 -0.14589592255E+02  0.86577873453E+02  0.80189453398E+02 0.  0.
          5    1    3    3  501    0 -0.83566468654E+00 -0.62484465435E+02 -0.13348962948E+03  0.14746720970E+03  0.47000000000E+01 0. -1.
        -13    1    4    4    0    0  0.83793954599E+01  0.20059242390E+02 -0.23067814992E+03  0.23170022945E+03  0.00000000000E+00 0.  1.
         14    1    4    4    0    0  0.98494899252E+02  0.61239584869E+01 -0.27224855782E+03  0.28958250168E+03  0.00000000000E+00 0. -1.
         -5    1    5    5    0  502 -0.10126528307E+03  0.65106449718E+02 -0.26206311115E+02  0.12329788357E+03  0.47000000000E+01 0.  1.
         11    1    6    6    0    0 -0.10011261102E+02  0.20064922958E+02 -0.27768208847E+02  0.35691734404E+02  0.00000000000E+00 0. -1.
        -12    1    6    6    0    0  0.52379141498E+01 -0.48870108117E+02  0.13178616592E+02  0.50886139049E+02  0.00000000000E+00 0.  1.
</event>
<event>
12    1  0.1596842E-001  0.2482448E+03  0.7818608E-02  0.1114688E+00
         21   -1    0    0  501  502  0.00000000000E+00  0.00000000000E+00  0.88796361051E+03  0.88796361051E+03  0.00000000000E+00 0.  1.
         21   -1    0    0  502  503 -0.00000000000E+00 -0.00000000000E+00 -0.25146190339E+03  0.25146190339E+03  0.00000000000E+00 0. -1.
         -6    2    1    2    0  503  0.11634984118E+03 -0.13556729102E+03 -0.16683755258E+03  0.29909904817E+03  0.17236500726E+03 0.  0.
        -24    2    3    3    0    0  0.93446879776E+02 -0.14466585118E+03 -0.75246627029E+02  0.20413422794E+03  0.79675594124E+02 0.  0.
          6    2    1    2  501    0 -0.11634984118E+03  0.13556729102E+03  0.80333925970E+03  0.84032646573E+03  0.16993771473E+03 0.  0.
         24    2    5    5    0    0 -0.11522457100E+03  0.15416675845E+03  0.79001130105E+03  0.81693991183E+03  0.78923206833E+02 0.  0.
          5    1    5    5  501    0 -0.11252701733E+01 -0.18599467427E+02  0.13327958655E+02  0.23386553903E+02  0.47000000000E+01 0. -1.
        -13    1    6    6    0    0 -0.90921738538E+02  0.85220501848E+02  0.61096788848E+03  0.62354715718E+03  0.00000000000E+00 0.  1.
         14    1    6    6    0    0 -0.24302832464E+02  0.68946256603E+02  0.17904341257E+03  0.19339275464E+03  0.00000000000E+00 0. -1.
         -5    1    3    3    0  503  0.22902961400E+02  0.90985601587E+01 -0.91590925556E+02  0.94964820234E+02  0.47000000000E+01 0.  1.
         11    1    4    4    0    0  0.60714024467E+02 -0.29513469529E+02 -0.43406381706E+02  0.80258031520E+02  0.00000000000E+00 0. -1.
        -12    1    4    4    0    0  0.32732855308E+02 -0.11515238165E+03 -0.31840245322E+02  0.12387619642E+03  0.00000000000E+00 0.  1.
</event>
<event>
12    1  0.1596842E-001  0.2137798E+03  0.7818608E-02  0.1138833E+00
         21   -1    0    0  501  502  0.00000000000E+00  0.00000000000E+00  0.48047703050E+02  0.48047703050E+02  0.00000000000E+00 0.  1.
         21   -1    0    0  502  503 -0.00000000000E+00 -0.00000000000E+00 -0.14013148189E+04  0.14013148189E+04  0.00000000000E+00 0. -1.
         -6    2    1    2    0  503  0.34085853369E+02  0.12172214533E+03 -0.10884619972E+04  0.11090339161E+04  0.17096368560E+03 0.  0.
        -24    2    3    3    0    0 -0.18835487365E+02  0.13470005935E+03 -0.82363605745E+03  0.83861948807E+03  0.80046293279E+02 0.  0.
          6    2    1    2  501    0 -0.34085853369E+02 -0.12172214533E+03 -0.26480511865E+03  0.34032860578E+03  0.17240557702E+03 0.  0.
         24    2    5    5    0    0 -0.45174464411E+02 -0.42471958318E+02 -0.53040345222E+02  0.11389990023E+03  0.79468922052E+02 0.  0.
          5    1    5    5  501    0  0.11088611042E+02 -0.79250187008E+02 -0.21176477343E+03  0.22642870556E+03  0.47000000000E+01 0. -1.
        -13    1    6    6    0    0 -0.27623209982E+02  0.19077673147E+02 -0.32387480310E+02  0.46647060177E+02  0.00000000000E+00 0.  1.
         14    1    6    6    0    0 -0.17551254429E+02 -0.61549631465E+02 -0.20652864912E+02  0.67252840049E+02  0.00000000000E+00 0. -1.
         -5    1    3    3    0  503  0.52921340734E+02 -0.12977914023E+02 -0.26482593972E+03  0.27041442806E+03  0.47000000000E+01 0.  1.
         13    1    4    4    0    0  0.20976311346E+02  0.49156924910E+02 -0.45383705313E+03  0.45697317175E+03  0.00000000000E+00 0. -1.
        -14    1    4    4    0    0 -0.39811798711E+02  0.85543134439E+02 -0.36979900432E+03  0.38164631632E+03  0.00000000000E+00 0.  1.
</event>
<event>
12    1  0.1596842E-001  0.2215597E+03  0.7818608E-02  0.1132769E+00
         21   -1    0    0  501  502  0.00000000000E+00  0.00000000000E+00  0.14174806426E+03  0.14174806426E+03  0.00000000000E+00 0.  1.
         21   -1    0    0  502  503 -0.00000000000E+00 -0.00000000000E+00 -0.58320617099E+03  0.58320617099E+03  0.00000000000E+00 0. -1.
         -6    2    1    2    0  503 -0.13531849367E+03 -0.31066930964E+02 -0.45185826599E+03  0.50315059220E+03  0.17236118172E+03 0.  0.
        -24    2    3    3    0    0 -0.12954767789E+03  0.32755827399E+02 -0.32055279783E+03  0.35696624705E+03  0.82554589574E+02 0.  0.
          6    2    1    2  501    0  0.13531849367E+03  0.31066930964E+02  0.10400159259E+02  0.22180364305E+03  0.17266280383E+03 0.  0.
         24    2    5    5    0    0  0.16779188637E+03  0.27075013466E+02  0.14560288528E+02  0.18848918201E+03  0.80181021738E+02 0.  0.
          5    1    5    5  501    0 -0.32473392699E+02  0.39919174983E+01 -0.41601292690E+01  0.33314461038E+02  0.47000000000E+01 0. -1.
        -11    1    6    6    0    0  0.22704331705E+02  0.23793077056E+02 -0.21065417473E+02  0.39055716704E+02  0.00000000000E+00 0.  1.
         12    1    6    6    0    0  0.14508755467E+03  0.32819364103E+01  0.35625706000E+02  0.14943346531E+03  0.00000000000E+00 0. -1.
         -5    1    3    3    0  503 -0.57708157792E+01 -0.63822758363E+02 -0.13130546816E+03  0.14618434515E+03  0.47000000000E+01 0.  1.
         13    1    4    4    0    0 -0.25607400337E+02 -0.25704285055E+02 -0.97568292664E+02  0.10409621009E+03  0.00000000000E+00 0. -1.
        -14    1    4    4    0    0 -0.10394027756E+03  0.58460112454E+02 -0.22298450517E+03  0.25287003696E+03  0.00000000000E+00 0.  1.
</event>
<event>
12    1  0.1596842E-001  0.2009245E+03  0.7818608E-02  0.1149055E+00
         21   -1    0    0  503  502  0.00000000000E+00  0.00000000000E+00  0.43849316577E+03  0.43849316577E+03  0.00000000000E+00 0.  1.
         21   -1    0    0  501  503 -0.00000000000E+00 -0.00000000000E+00 -0.92357870007E+02  0.92357870007E+02  0.00000000000E+00 0.  1.
          6    2    1    2  501    0  0.10178010735E+03 -0.11254019625E+02  0.19269227505E+03  0.27838994614E+03  0.17287222460E+03 0.  0.
         24    2    3    3    0    0  0.76560315606E+02  0.41029324263E+02  0.59929763607E+02  0.13341560224E+03  0.81628787694E+02 0.  0.
         -6    2    1    2    0  502 -0.10178010735E+03  0.11254019625E+02  0.15344302072E+03  0.25246108964E+03  0.17235428038E+03 0.  0.
        -24    2    5    5    0    0 -0.41967336597E+02  0.69519590315E+02  0.10065589526E+03  0.15356207606E+03  0.82797772765E+02 0.  0.
          5    1    3    3  501    0  0.25219791749E+02 -0.52283343888E+02  0.13276251144E+03  0.14497434389E+03  0.47000000000E+01 0. -1.
        -13    1    4    4    0    0  0.80114093321E+02  0.36257669694E+02  0.76032434907E+02  0.11624894717E+03  0.00000000000E+00 0.  1.
         14    1    4    4    0    0 -0.35537777152E+01  0.47716545693E+01 -0.16102671300E+02  0.17166655072E+02  0.00000000000E+00 0. -1.
         -5    1    5    5    0  502 -0.59812770758E+02 -0.58265570690E+02  0.52787125460E+02  0.98899013584E+02  0.47000000000E+01 0.  1.
         13    1    6    6    0    0 -0.24233272527E+02  0.35710909979E+02 -0.28389591371E+01  0.43250205524E+02  0.00000000000E+00 0. -1.
        -14    1    6    6    0    0 -0.17734064070E+02  0.33808680336E+02  0.10349485440E+03  0.11031187054E+03  0.00000000000E+00 0.  1.
</event>
<event>
12    1  0.1596842E-001  0.1751919E+03  0.7818608E-02  0.1172649E+00
         21   -1    0    0  501  502  0.00000000000E+00  0.00000000000E+00  0.13688611561E+04  0.13688611561E+04  0.00000000000E+00 0.  1.
         21   -1    0    0  502  503 -0.00000000000E+00 -0.00000000000E+00 -0.22835482766E+02  0.22835482766E+02  0.00000000000E+00 0.  1.
         -6    2    1    2    0  503 -0.22344008073E+02  0.22397137921E+02  0.77199686229E+03  0.79152891685E+03  0.17186618148E+03 0.  0.
        -24    2    3    3    0    0 -0.48673041409E+01 -0.53388457835E+02  0.39548176614E+03  0.40703626499E+03  0.79991721989E+02 0.  0.
          6    2    1    2  501    0  0.22344008073E+02 -0.22397137921E+02  0.57402881104E+03  0.60016772201E+03  0.17231172961E+03 0.  0.
         24    2    5    5    0    0 -0.48693986730E+02 -0.32534007920E+01  0.24131994392E+03  0.25938896735E+03  0.81643322352E+02 0.  0.
          5    1    5    5  501    0  0.71037994802E+02 -0.19143737129E+02  0.33270886711E+03  0.34077875467E+03  0.47000000000E+01 0. -1.
        -11    1    6    6    0    0 -0.92533629691E+01 -0.26399681909E+02  0.22667199209E+02  0.36005136454E+02  0.00000000000E+00 0.  1.
         12    1    6    6    0    0 -0.39440623761E+02  0.23146281117E+02  0.21865274472E+03  0.22338383089E+03  0.00000000000E+00 0. -1.
         -5    1    3    3    0  503 -0.17476703932E+02  0.75785595756E+02  0.37651509615E+03  0.38449265186E+03  0.47000000000E+01 0.  1.
         13    1    4    4    0    0 -0.36296270683E+01  0.74913343388E+01  0.16015571511E+01  0.84769846135E+01  0.00000000000E+00 0. -1.
        -14    1    4    4    0    0 -0.12376770726E+01 -0.60879792174E+02  0.39388020899E+03  0.39855928037E+03  0.00000000000E+00 0.  1.
</event>
<event>
12    1  0.1596842E-001  0.3551610E+03  0.7818608E-02  0.1060540E+00
         21   -1    0    0  501  502  0.00000000000E+00  0.00000000000E+00  0.56050731776E+03  0.56050731776E+03  0.00000000000E+00 0. -1.
         21   -1    0    0  502  503 -0.00000000000E+00 -0.00000000000E+00 -0.35814592245E+03  0.35814592245E+03  0.00000000000E+00 0.  1.
         -6    2    1    2    0  503 -0.29404465047E+02 -0.30912942716E+03 -0.17900761223E+03  0.39751828324E+03  0.17190530816E+03 0.  0.
        -24    2    3    3    0    0 -0.31380363542E+02 -0.72511768338E+02 -0.26247377749E+02  0.11582767303E+03  0.80526028322E+02 0.  0.
          6    2    1    2  501    0  0.29404465047E+02  0.30912942716E+03  0.38136900754E+03  0.52113495696E+03  0.17237661720E+03 0.  0.
         24    2    5    5    0    0  0.57667242176E+00  0.18522270836E+03  0.13135822423E+03  0.24057943953E+03  0.79471374776E+02 0.  0.
          5    1    5    5  501    0  0.28827792626E+02  0.12390671880E+03  0.25001078330E+03  0.28055551743E+03  0.47000000000E+01 0. -1.
        -11    1    6    6    0    0 -0.27864298037E+02  0.74593711330E+02  0.22396819500E+02  0.82717944842E+02  0.00000000000E+00 0.  1.
         12    1    6    6    0    0  0.28440970459E+02  0.11062899703E+03  0.10896140473E+03  0.15786149469E+03  0.00000000000E+00 0. -1.
         -5    1    3    3    0  503  0.19758984942E+01 -0.23661765882E+03 -0.15276023448E+03  0.28169061021E+03  0.47000000000E+01 0.  1.
         11    1    4    4    0    0 -0.15171124501E+02  0.16397712446E+02 -0.32694470876E+01  0.22577362033E+02  0.00000000000E+00 0. -1.
        -12    1    4    4    0    0 -0.16209239040E+02 -0.88909480784E+02 -0.22977930661E+02  0.93250310997E+02  0.00000000000E+00 0.  1.
</event>
<event>
12    1  0.1596842E-001  0.3024615E+03  0.7818608E-02  0.1084380E+00
         21   -1    0    0  501  502  0.00000000000E+00  0.00000000000E+00  0.40551951451E+03  0.40551951451E+03  0.00000000000E+00 0. -1.
         21   -1    0    0  502  503 -0.00000000000E+00 -0.00000000000E+00 -0.23117406159E+03  0.23117406159E+03  0.00000000000E+00 0.  1.
         -6    2    1    2    0  503  0.10203443136E+03 -0.22327368146E+03  0.29273357143E+02  0.30387479179E+03  0.17669407922E+03 0.  0.
        -24    2    3    3    0    0 -0.11653942122E+02 -0.67280583032E+02  0.37985580469E+02  0.11059549683E+03  0.78268565697E+02 0.  0.
          6    2    1    2  501    0 -0.10203443136E+03  0.22327368146E+03  0.14507209577E+03  0.33281878432E+03  0.17163993768E+03 0.  0.
         24    2    5    5    0    0 -0.57920083799E+02  0.22969271080E+03  0.99393765574E+02  0.26881972613E+03  0.79192468227E+02 0.  0.
          5    1    5    5  501    0 -0.44114347564E+02 -0.64190293361E+01  0.45678330200E+02  0.63999058184E+02  0.47000000000E+01 0. -1.
        -13    1    6    6    0    0 -0.58398602327E+02  0.80196512216E+02  0.27579362779E+02  0.10296843486E+03  0.00000000000E+00 0.  1.
         14    1    6    6    0    0  0.47851852845E+00  0.14949619858E+03  0.71814402796E+02  0.16585129128E+03  0.00000000000E+00 0. -1.
         -5    1    3    3    0  503  0.11368837348E+03 -0.15599309843E+03 -0.87122233257E+01  0.19327929495E+03  0.47000000000E+01 0.  1.
         13    1    4    4    0    0  0.22206594974E+02 -0.10110976871E+02  0.36782682847E+02  0.44139896591E+02  0.00000000000E+00 0. -1.
        -14    1    4    4    0    0 -0.33860537095E+02 -0.57169606161E+02  0.12028976220E+01  0.66455600243E+02  0.00000000000E+00 0.  1.
</event>
<event>
12    1  0.1596842E-001  0.2069421E+03  0.7818608E-02  0.1144081E+00
         21   -1    0    0  503  502  0.00000000000E+00  0.00000000000E+00  0.77018406148E+03  0.77018406148E+03  0.00000000000E+00 0.  1.
         21   -1    0    0  501  503 -0.00000000000E+00 -0.00000000000E+00 -0.11963193541E+03  0.11963193541E+03  0.00000000000E+00 0.  1.
          6    2    1    2  501    0 -0.11262691903E+03 -0.29596293821E+02 -0.32073231436E+00  0.20694235457E+03  0.17106803251E+03 0.  0.
         24    2    3    3    0    0 -0.74276044799E+02 -0.70894285537E+02 -0.41417520754E+02  0.13703277229E+03  0.80744282168E+02 0.  0.
         -6    2    1    2    0  502  0.11262691903E+03  0.29596293821E+02  0.65087285838E+03  0.68287364232E+03  0.17064633045E+03 0.  0.
        -24    2    5    5    0    0  0.77256092621E+02  0.48765999268E+02  0.23451226159E+03  0.26454744240E+03  0.81502895148E+02 0.  0.
          5    1    3    3  501    0 -0.38350874232E+02  0.41297991716E+02  0.41096788440E+02  0.69909582277E+02  0.47000000000E+01 0. -1.
        -11    1    4    4    0    0 -0.47647006823E+02  0.57116089733E+01 -0.25646368625E+02  0.54411358740E+02  0.00000000000E+00 0.  1.
         12    1    4    4    0    0 -0.26629037976E+02 -0.76605894510E+02 -0.15771152129E+02  0.82621413548E+02  0.00000000000E+00 0. -1.
         -5    1    5    5    0  502  0.35370826409E+02 -0.19169705448E+02  0.41636059680E+03  0.41832619991E+03  0.47000000000E+01 0.  1.
         13    1    6    6    0    0 -0.16587235090E+02  0.15866256512E+02  0.41586711448E+02  0.47500831915E+02  0.00000000000E+00 0. -1.
        -14    1    6    6    0    0  0.93843327711E+02  0.32899742757E+02  0.19292555014E+03  0.21704661049E+03  0.00000000000E+00 0.  1.
</event>
<event>
12    1  0.1596842E-001  0.1813608E+03  0.7818608E-02  0.1166693E+00
         21   -1    0    0  501  502  0.00000000000E+00  0.00000000000E+00  0.44884465605E+03  0.44884465605E+03  0.00000000000E+00 0.  1.
         21   -1    0    0  502  503 -0.00000000000E+00 -0.00000000000E+00 -0.81818490173E+02  0.81818490173E+02  0.00000000000E+00 0.  1.
         -6    2    1    2    0  503  0.54437192808E+02 -0.19132648028E+02  0.96507653567E+02  0.20543968697E+03  0.17193682445E+03 0.  0.
        -24    2    3    3    0    0  0.16506167571E+02  0.77855705446E+01  0.12706592723E+03  0.14958942953E+03  0.76799602142E+02 0.  0.
          6    2    1    2  501    0 -0.54437192808E+02  0.19132648028E+02  0.27051851231E+03  0.32522345925E+03  0.17105720320E+03 0.  0.
         24    2    5    5    0    0 -0.17925789139E+02 -0.16465178136E+01  0.42442356620E+02  0.93262947259E+02  0.81071442313E+02 0.  0.
          5    1    5    5  501    0 -0.36511403669E+02  0.20779165842E+02  0.22807615569E+03  0.23196051200E+03  0.47000000000E+01 0. -1.
        -11    1    6    6    0    0  0.29725244009E+02 -0.13911377383E+02  0.99348751084E+01  0.34290206992E+02  0.00000000000E+00 0.  1.
         12    1    6    6    0    0 -0.47651033148E+02  0.12264859570E+02  0.32507481512E+02  0.58972740267E+02  0.00000000000E+00 0. -1.
         -5    1    3    3    0  503  0.37931025238E+02 -0.26918218573E+02 -0.30558273660E+02  0.55850257437E+02  0.47000000000E+01 0.  1.
         13    1    4    4    0    0 -0.27892653291E+01 -0.14631668639E+02 -0.38411521591E+01  0.15382463332E+02  0.00000000000E+00 0. -1.
        -14    1    4    4    0    0  0.19295432900E+02  0.22417239184E+02  0.13090707939E+03  0.13420696620E+03  0.00000000000E+00 0.  1.
</event>
<event>
12    1  0.1596842E-001  0.1824085E+03  0.7818608E-02  0.1165738E+00
         21   -1    0    0  503  502  0.00000000000E+00  0.00000000000E+00  0.10641731301E+03  0.10641731301E+03  0.00000000000E+00 0.  1.
         21   -1    0    0  501  503 -0.00000000000E+00 -0.00000000000E+00 -0.68326200708E+03  0.68326200708E+03  0.00000000000E+00 0.  1.
          6    2    1    2  501    0  0.14971532233E+02  0.56239753408E+02 -0.58027521861E+03  0.60826984104E+03  0.17287513857E+03 0.  0.
         24    2    3    3    0    0  0.37049908643E+02  0.65782198497E+02 -0.57207292702E+03  0.58242645599E+03  0.79076857790E+02 0.  0.
         -6    2    1    2    0  502 -0.14971532233E+02 -0.56239753408E+02  0.34305245452E+01  0.18140947905E+03  0.17178641957E+03 0.  0.
        -24    2    5    5    0    0 -0.11743238370E+01 -0.92484442669E+02 -0.31750016953E+02  0.12883761433E+03  0.83882752211E+02 0.  0.
          5    1    3    3  501    0 -0.22078376410E+02 -0.95424450891E+01 -0.82022915901E+01  0.25843385043E+02  0.47000000000E+01 0. -1.
        -11    1    4    4    0    0 -0.22181589654E+02  0.19276897688E+02 -0.94849382495E+02  0.99297668975E+02  0.00000000000E+00 0.  1.
         12    1    4    4    0    0  0.59231498297E+02  0.46505300809E+02 -0.47722354453E+03  0.48312878702E+03  0.00000000000E+00 0. -1.
         -5    1    5    5    0  502 -0.13797208396E+02  0.36244689261E+02  0.35180541498E+02  0.52571864711E+02  0.47000000000E+01 0.  1.
         11    1    6    6    0    0 -0.25534420892E+02 -0.95827104573E+02 -0.18414999224E+02  0.10086601418E+03  0.00000000000E+00 0. -1.
        -12    1    6    6    0    0  0.24360097055E+02  0.33426619034E+01 -0.13335017728E+02  0.27971600149E+02  0.00000000000E+00 0.  1.
</event>
<event>
12    1  0.1596842E-001  0.1819873E+03  0.7818608E-02  0.1166588E+00
         21   -1    0    0  501  502  0.00000000000E+00  0.00000000000E+00  0.45839357316E+03  0.45839357316E+03  0.00000000000E+00 0. -1.
         21   -1    0    0  502  503 -0.00000000000E+00 -0.00000000000E+00 -0.77289371033E+02  0.77289371033E+02  0.00000000000E+00 0.  1.
         -6    2    1    2    0  503  0.23485828744E+02 -0.45081551067E+02  0.26488531299E+03  0.31975192848E+03  0.17173565830E+03 0.  0.
        -24    2    3    3    0    0  0.43588214573E+02 -0.60866610465E+02  0.27169389629E+03  0.29288706625E+03  0.79753266849E+02 0.  0.
          6    2    1    2  501    0 -0.23485828744E+02  0.45081551067E+02  0.11621888914E+03  0.21593101571E+03  0.17474393539E+03 0.  0.
         24    2    5    5    0    0 -0.15971728457E+02  0.96418956990E+02  0.10084968302E+03  0.16161441193E+03  0.79980298830E+02 0.  0.
          5    1    5    5  501    0 -0.75141002864E+01 -0.51337405923E+02  0.15369206123E+02  0.54316603786E+02  0.47000000000E+01 0. -1.
        -13    1    6    6    0    0 -0.27849117316E+01  0.10315982969E+03  0.62847582361E+02  0.12082849335E+03  0.00000000000E+00 0.  1.
         14    1    6    6    0    0 -0.13186816726E+02 -0.67408727044E+01  0.38002100655E+02  0.40785918580E+02  0.00000000000E+00 0. -1.
         -5    1    3    3    0  503 -0.20102385829E+02  0.15785059398E+02 -0.68085833033E+01  0.26864862234E+02  0.47000000000E+01 0.  1.
         11    1    4    4    0    0  0.21293760185E+02 -0.49237208688E+02  0.25941574350E+03  0.26490423726E+03  0.00000000000E+00 0. -1.
        -12    1    4    4    0    0  0.22294454388E+02 -0.11629401778E+02  0.12278152791E+02  0.27982828987E+02  0.00000000000E+00 0.  1.
</event>
<event>
12    1  0.1596842E-001  0.1954559E+03  0.7818608E-02  0.1153903E+00
         21   -1    0    0  501  502  0.00000000000E+00  0.00000000000E+00  0.38322923799E+02  0.38322923799E+02  0.00000000000E+00 0.  1.
         21   -1    0    0  502  503 -0.00000000000E+00 -0.00000000000E+00 -0.14595061353E+04  0.14595061353E+04  0.00000000000E+00 0. -1.
         -6    2    1    2    0  503 -0.88247963777E+02 -0.29197169239E+02 -0.11335800726E+04  0.11500955703E+04  0.17051645646E+03 0.  0.
        -24    2    3    3    0    0 -0.11188602612E+03 -0.25678051671E+02 -0.10983613239E+04  0.11072751027E+04  0.80515278749E+02 0.  0.
          6    2    1    2  501    0  0.88247963777E+02  0.29197169239E+02 -0.28760313887E+03  0.34773348882E+03  0.17193846560E+03 0.  0.
         24    2    5    5    0    0  0.75034030536E+01  0.67206211616E+02 -0.17396593146E+03  0.20316559370E+03  0.80244234803E+02 0.  0.
          5    1    5    5  501    0  0.80744560723E+02 -0.38009042377E+02 -0.11363720742E+03  0.14456789512E+03  0.47000000000E+01 0. -1.
        -11    1    6    6    0    0  0.38127429210E+02  0.36115626240E+02 -0.53192043164E+02  0.74749132254E+02  0.00000000000E+00 0.  1.
         12    1    6    6    0    0 -0.30624026156E+02  0.31090585376E+02 -0.12077388829E+03  0.12841646145E+03  0.00000000000E+00 0. -1.
         -5    1    3    3    0  503  0.23638062347E+02 -0.35191175682E+01 -0.35218748774E+02  0.42820467597E+02  0.47000000000E+01 0.  1.
         13    1    4    4    0    0 -0.63500742687E+02 -0.28053844056E+01 -0.88587627313E+03  0.88815369492E+03  0.00000000000E+00 0. -1.
        -14    1    4    4    0    0 -0.48385283437E+02 -0.22872667265E+02 -0.21248505074E+03  0.21912140779E+03  0.00000000000E+00 0.  1.
</event>
<event>
12    1  0.1596842E-001  0.2027485E+03  0.7818608E-02  0.1148315E+00
         21   -1    0    0  503  502  0.00000000000E+00  0.00000000000E+00  0.10300759488E+03  0.10300759488E+03  0.00000000000E+00 0.  1.
         21   -1    0    0  501  503 -0.00000000000E+00 -0.00000000000E+00 -0.39658210541E+03  0.39658210541E+03  0.00000000000E+00 0.  1.
          6    2    1    2  501    0  0.75168337668E+02  0.67176367830E+02 -0.11837378453E+03  0.23477505671E+03  0.17590915556E+03 0.  0.
         24    2    3    3    0    0 -0.21359195682E+02  0.42992062040E+02 -0.92195069735E+02  0.13177087986E+03  0.80988278515E+02 0.  0.
         -6    2    1    2    0  502 -0.75168337668E+02 -0.67176367830E+02 -0.17520072600E+03  0.26481464358E+03  0.17108055905E+03 0.  0.
        -24    2    5    5    0    0 -0.88729416695E+02 -0.31149703218E+01 -0.61538106343E+02  0.13355518060E+03  0.78533020484E+02 0.  0.
          5    1    3    3  501    0  0.96527533350E+02  0.24184305791E+02 -0.26178714795E+02  0.10300417685E+03  0.47000000000E+01 0. -1.
        -11    1    4    4    0    0 -0.21949812065E+02  0.10100916104E+02  0.86746865302E+01  0.25672415979E+02  0.00000000000E+00 0.  1.
         12    1    4    4    0    0  0.59061638270E+00  0.32891145936E+02 -0.10086975627E+03  0.10609846388E+03  0.00000000000E+00 0. -1.
         -5    1    5    5    0  502  0.13561079027E+02 -0.64061397509E+02 -0.11366261965E+03  0.13125946298E+03  0.47000000000E+01 0.  1.
         11    1    6    6    0    0  0.12864841376E+02  0.74153952624E+01 -0.11343842725E+01  0.14892248259E+02  0.00000000000E+00 0. -1.
        -12    1    6    6    0    0 -0.10159425807E+03 -0.10530365584E+02 -0.60403722071E+02  0.11866293234E+03  0.00000000000E+00 0.  1.
</event>
<event>
12    1  0.1596842E-001  0.1780195E+03  0.7818608E-02  0.1169788E+00
         21   -1    0    0  501  502  0.00000000000E+00  0.00000000000E+00  0.26176799505E+04  0.26176799505E+04  0.00000000000E+00 0.  1.
         21   -1    0    0  502  503 -0.00000000000E+00 -0.00000000000E+00 -0.12223565612E+02  0.12223565612E+02  0.00000000000E+00 0. -1.
         -6    2    1    2    0  503  0.18712023144E+02 -0.41422535736E+02  0.11667732839E+04  0.11802757394E+04  0.17211902518E+03 0.  0.
        -24    2    3    3    0    0  0.14962159883E+02 -0.24444479053E+02  0.23893086512E+03  0.25225851980E+03  0.75663754320E+02 0.  0.
          6    2    1    2  501    0 -0.18712023144E+02  0.41422535736E+02  0.14386831010E+04  0.14496277767E+04  0.17188850901E+03 0.  0.
         24    2    5    5    0    0  0.54642151295E+01  0.75070423361E+02  0.13037693556E+04  0.13084170139E+04  0.80468151655E+02 0.  0.
          5    1    5    5  501    0 -0.24176238273E+02 -0.33647887625E+02  0.13491374538E+03  0.14121076280E+03  0.47000000000E+01 0. -1.
        -11    1    6    6    0    0  0.10644118756E+02 -0.15740572816E+02  0.25859748780E+03  0.25929466557E+03  0.00000000000E+00 0.  1.
         12    1    6    6    0    0 -0.51799036267E+01  0.90810996178E+02  0.10451718678E+04  0.10491223483E+04  0.00000000000E+00 0. -1.
         -5    1    3    3    0  503  0.37498632606E+01 -0.16978056683E+02  0.92784241877E+03  0.92801721964E+03  0.47000000000E+01 0.  1.
         13    1    4    4    0    0 -0.16584652179E+02 -0.35697089909E+02  0.18198399000E+03  0.18619211995E+03  0.00000000000E+00 0. -1.
        -14    1    4    4    0    0  0.31546812062E+02  0.11252610856E+02  0.56946875121E+02  0.66066399844E+02  0.00000000000E+00 0.  1.
</event>
<event>
12    1  0.1596842E-001  0.2003364E+03  0.7818608E-02  0.1149494E+00
         21   -1    0    0  501  502  0.00000000000E+00  0.00000000000E+00  0.11469285138E+04  0.11469285138E+04  0.00000000000E+00 0. -1.
         21   -1    0    0  502  503 -0.00000000000E+00 -0.00000000000E+00 -0.45418735528E+02  0.45418735528E+02  0.00000000000E+00 0. -1.
         -6    2    1    2    0  503 -0.63414502685E+02  0.79982962421E+02  0.83662756567E+03  0.86023694865E+03  0.17217215441E+03 0.  0.
        -24    2    3    3    0    0 -0.72269111011E+02  0.28221932155E+02  0.75532445621E+03  0.76333548349E+03  0.78401048076E+02 0.  0.
          6    2    1    2  501    0  0.63414502685E+02 -0.79982962421E+02  0.26488221265E+03  0.33211030072E+03  0.17238327019E+03 0.  0.
         24    2    5    5    0    0  0.68346598837E+02 -0.72675733157E+01  0.78733539731E+02  0.13214712458E+03  0.80869135406E+02 0.  0.
          5    1    5    5  501    0 -0.49320961520E+01 -0.72715389106E+02  0.18614867291E+03  0.19996317614E+03  0.47000000000E+01 0. -1.
        -13    1    6    6    0    0  0.11365123526E+02  0.79531696390E+01  0.71375104068E+02  0.72710552334E+02  0.00000000000E+00 0.  1.
         14    1    6    6    0    0  0.56981475312E+02 -0.15220742955E+02  0.73584356630E+01  0.59436572245E+02  0.00000000000E+00 0. -1.
         -5    1    3    3    0  503  0.88546083260E+01  0.51761030266E+02  0.81303109456E+02  0.96901465159E+02  0.47000000000E+01 0.  1.
         13    1    4    4    0    0 -0.44166641950E+02  0.55539735334E+02  0.46739448957E+03  0.47275042394E+03  0.00000000000E+00 0. -1.
        -14    1    4    4    0    0 -0.28102469061E+02 -0.27317803179E+02  0.28792996665E+03  0.29058505955E+03  0.00000000000E+00 0.  1.
</event>
<event>
12    1  0.1596842E-001  0.1767090E+03  0.7818608E-02  0.1171473E+00
         21   -1    0    0  501  502  0.00000000000E+00  0.00000000000E+00  0.11344795030E+03  0.11344795030E+03  0.00000000000E+00 0.  1.
         21   -1    0    0  502  503 -0.00000000000E+00 -0.00000000000E+00 -0.30449711014E+03  0.30449711014E+03  0.00000000000E+00 0.  1.
         -6    2    1    2    0  503  0.34198347359E+01  0.32892803162E+02 -0.16286620633E+03  0.23900274000E+03  0.17176517922E+03 0.  0.
        -24    2    3    3    0    0  0.51212601442E+02  0.13331235008E+02 -0.16435091111E+03  0.18712694751E+03  0.72144439336E+02 0.  0.
          6    2    1    2  501    0 -0.34198347359E+01 -0.32892803162E+02 -0.28182953517E+02  0.17894232044E+03  0.17358699089E+03 0.  0.
         24    2    5    5    0    0 -0.24519966958E+02  0.26447006511E+02  0.31963949605E+02  0.91728969698E+02  0.78050220208E+02 0.  0.
          5    1    5    5  501    0  0.21100132222E+02 -0.59339809673E+02 -0.60146903122E+02  0.87213350738E+02  0.47000000000E+01 0. -1.
        -13    1    6    6    0    0 -0.42218629348E+02  0.21576259635E+02 -0.76901378744E+01  0.48032133664E+02  0.00000000000E+00 0.  1.
         14    1    6    6    0    0  0.17698662390E+02  0.48707468760E+01  0.39654087480E+02  0.43696836034E+02  0.00000000000E+00 0. -1.
         -5    1    3    3    0  503 -0.47792766706E+02  0.19561568154E+02  0.14847047870E+01  0.51875792489E+02  0.47000000000E+01 0.  1.
         11    1    4    4    0    0 -0.10732335425E+02  0.12812775603E+02 -0.71838329914E+01  0.18192242819E+02  0.00000000000E+00 0. -1.
        -12    1    4    4    0    0  0.61944936867E+02  0.51845940537E+00 -0.15716707812E+03  0.16893470469E+03  0.00000000000E+00 0.  1.
</event>
<event>
12    1  0.1596842E-001  0.2127677E+03  0.7818608E-02  0.1139644E+00
         21   -1    0    0  503  502  0.00000000000E+00  0.00000000000E+00  0.16924569223E+04  0.16924569223E+04  0.00000000000E+00 0. -1.
         21   -1    0    0  501  503 -0.00000000000E+00 -0.00000000000E+00 -0.26911473728E+02  0.26911473728E+02  0.00000000000E+00 0.  1.
          6    2    1    2  501    0 -0.97443865909E+02  0.73281739000E+02  0.74078416706E+03  0.77073425771E+03  0.17436913020E+03 0.  0.
         24    2    3    3    0    0 -0.98763308756E+02 -0.12792776214E+02  0.44727542926E+03  0.46482572193E+03  0.78037144152E+02 0.  0.
         -6    2    1    2    0  502  0.97443865909E+02 -0.73281739000E+02  0.92476128154E+03  0.94863413835E+03  0.17279404019E+03 0.  0.
        -24    2    5    5    0    0  0.31632322485E+02 -0.96265972488E+02  0.74582625857E+03  0.75654231998E+03  0.76365782048E+02 0.  0.
          5    1    3    3  501    0  0.13194428468E+01  0.86074515214E+02  0.29350873780E+03  0.30590853578E+03  0.47000000000E+01 0. -1.
        -13    1    4    4    0    0 -0.72387383010E+01  0.26034569159E+02  0.89002631079E+02  0.93014334715E+02  0.00000000000E+00 0.  1.
         14    1    4    4    0    0 -0.91524570455E+02 -0.38827345373E+02  0.35827279818E+03  0.37181138722E+03  0.00000000000E+00 0. -1.
         -5    1    5    5    0  502  0.65811543424E+02  0.22984233488E+02  0.17893502297E+03  0.19209181837E+03  0.47000000000E+01 0.  1.
         13    1    6    6    0    0 -0.22812434876E+01 -0.63770347648E+01  0.31755718396E+03  0.31762939998E+03  0.00000000000E+00 0. -1.
        -14    1    6    6    0    0  0.33913565973E+02 -0.89888937723E+02  0.42826907460E+03  0.43891292000E+03  0.00000000000E+00 0.  1.
</event>
<event>
12    1  0.1596842E-001  0.2166318E+03  0.7818608E-02  0.1136501E+00
         21   -1    0    0  501  502  0.00000000000E+00  0.00000000000E+00  0.37576649946E+02  0.37576649946E+02  0.00000000000E+00 0. -1.
         21   -1    0    0  502  503 -0.00000000000E+00 -0.00000000000E+00 -0.13076215541E+04  0.13076215541E+04  0.00000000000E+00 0. -1.
         -6    2    1    2    0  503  0.68231943320E+02  0.11297436624E+03 -0.77993917439E+03  0.80935030692E+03  0.17124251236E+03 0.  0.
        -24    2    3    3    0    0 -0.21987080345E+02  0.30795857728E+02 -0.41765121447E+03  0.42703180698E+03  0.80571773386E+02 0.  0.
          6    2    1    2  501    0 -0.68231943320E+02 -0.11297436624E+03 -0.49010572977E+03  0.53584789714E+03  0.17178631201E+03 0.  0.
         24    2    5    5    0    0  0.20944693675E+02 -0.44554276785E+02 -0.14977920359E+03  0.17740959610E+03  0.81342431653E+02 0.  0.
          5    1    5    5  501    0 -0.89176636994E+02 -0.68420089459E+02 -0.34032652619E+03  0.35843830104E+03  0.47000000000E+01 0. -1.
        -11    1    6    6    0    0  0.11527194722E+02 -0.16556325459E+02  0.42135462223E+01  0.20609272249E+02  0.00000000000E+00 0.  1.
         12    1    6    6    0    0  0.94174989527E+01 -0.27997951326E+02 -0.15399274981E+03  0.15680032385E+03  0.00000000000E+00 0. -1.
         -5    1    3    3    0  503  0.90219023665E+02  0.82178508517E+02 -0.36228795992E+03  0.38231849994E+03  0.47000000000E+01 0.  1.
         13    1    4    4    0    0 -0.12960291502E+02  0.55421039972E+02 -0.20448885329E+03  0.21226198894E+03  0.00000000000E+00 0. -1.
        -14    1    4    4    0    0 -0.90267888432E+01 -0.24625182245E+02 -0.21316236118E+03  0.21476981804E+03  0.00000000000E+00 0.  1.
</event>
<event>
12    1  0.1596842E-001  0.2370457E+03  0.7818608E-02  0.1122096E+00
         21   -1    0    0  503  502  0.00000000000E+00  0.00000000000E+00  0.13021763435E+04  0.13021763435E+04  0.00000000000E+00 0. -1.
         21   -1    0    0  501  503 -0.00000000000E+00 -0.00000000000E+00 -0.43175554789E+02  0.43175554789E+02  0.00000000000E+00 0. -1.
          6    2    1    2  501    0 -0.15825337582E+03  0.39839845659E+01  0.57009614713E+03  0.61741418256E+03  0.17643880742E+03 0.  0.
         24    2    3    3    0    0 -0.66963543680E+02  0.28305710941E+02  0.45840080861E+03  0.47104711498E+03  0.80428562965E+02 0.  0.
         -6    2    1    2    0  502  0.15825337582E+03 -0.39839845659E+01  0.68890464159E+03  0.72793771574E+03  0.17390718701E+03 0.  0.
        -24    2    5    5    0    0  0.18148978050E+03 -0.29051916981E+02  0.59632700964E+03  0.62913974169E+03  0.80177040623E+02 0.  0.
          5    1    3    3  501    0 -0.91289832140E+02 -0.24321726376E+02  0.11169533852E+03  0.14636706758E+03  0.47000000000E+01 0. -1.
        -11    1    4    4    0    0 -0.66360259199E+02  0.52149322014E+02  0.34620901298E+03  0.35634802716E+03  0.00000000000E+00 0.  1.
         12    1    4    4    0    0 -0.60328448125E+00 -0.23843611072E+02  0.11219179563E+03  0.11469908783E+03  0.00000000000E+00 0. -1.
         -5    1    5    5    0  502 -0.23236404678E+02  0.25067932415E+02  0.92577631948E+02  0.98797974043E+02  0.47000000000E+01 0.  1.
         13    1    6    6    0    0  0.41004286253E+02  0.21810783691E+02  0.20656630973E+03  0.21172317326E+03  0.00000000000E+00 0. -1.
        -14    1    6    6    0    0  0.14048549424E+03 -0.50862700672E+02  0.38976069991E+03  0.41741656844E+03  0.00000000000E+00 0.  1.
</event>
<event>
12    1  0.1596842E-001  0.2937135E+03  0.7818608E-02  0.1088500E+00
         21   -1    0    0  503  502  0.00000000000E+00  0.00000000000E+00  0.67353107329E+03  0.67353107329E+03  0.00000000000E+00 0.  1.
         21   -1    0    0  501  503 -0.00000000000E+00 -0.00000000000E+00 -0.16331240689E+03  0.16331240689E+03  0.00000000000E+00 0. -1.
          6    2    1    2  501    0  0.17061438920E+03 -0.16624434344E+03  0.44994385201E+03  0.53700904406E+03  0.17082971612E+03 0.  0.
         24    2    3    3    0    0  0.52626896467E+02 -0.75276440534E+02  0.10349205140E+03  0.15985238172E+03  0.80037781745E+02 0.  0.
         -6    2    1    2    0  502 -0.17061438920E+03  0.16624434344E+03  0.60274814383E+02  0.29983443611E+03  0.17181729918E+03 0.  0.
        -24    2    5    5    0    0 -0.99480080691E+02  0.20580495752E+02  0.45675908429E+02  0.13700549388E+03  0.79777023528E+02 0.  0.
          5    1    3    3  501    0  0.11798749274E+03 -0.90967902911E+02  0.34645180062E+03  0.37715666235E+03  0.47000000000E+01 0. -1.
        -13    1    4    4    0    0  0.45766456961E+02 -0.31143077997E+02  0.10093141417E+03  0.11511563863E+03  0.00000000000E+00 0.  1.
         14    1    4    4    0    0  0.68604395054E+01 -0.44133362537E+02  0.25606372246E+01  0.44736743087E+02  0.00000000000E+00 0. -1.
         -5    1    5    5    0  502 -0.71134308513E+02  0.14566384769E+03  0.14598905955E+02  0.16282894223E+03  0.47000000000E+01 0.  1.
         13    1    6    6    0    0 -0.63739751094E+02  0.39478123100E+02 -0.13533684754E+01  0.74987396803E+02  0.00000000000E+00 0. -1.
        -14    1    6    6    0    0 -0.35740329598E+02 -0.18897627348E+02  0.47029276904E+02  0.62018097079E+02  0.00000000000E+00 0.  1.
</event>
<event>
12    1  0.1596842E-001  0.2752768E+03  0.7818608E-02  0.1098463E+00
         21   -1    0    0  503  502  0.00000000000E+00  0.00000000000E+00  0.31309724060E+03  0.31309724060E+03  0.00000000000E+00 0.  1.
         21   -1    0    0  501  503 -0.00000000000E+00 -0.00000000000E+00 -0.29017693870E+03  0.29017693870E+03  0.00000000000E+00 0.  1.
          6    2    1    2  501    0  0.18664065991E+03 -0.10615101327E+03 -0.11271402945E+03  0.29745884301E+03  0.17226298878E+03 0.  0.
         24    2    3    3    0    0  0.21521537051E+02  0.34694413319E+01 -0.36277677044E+02  0.84983962688E+02  0.73695254136E+02 0.  0.
         -6    2    1    2    0  502 -0.18664065991E+03  0.10615101327E+03  0.13563433134E+03  0.30581533629E+03  0.17036306678E+03 0.  0.
        -24    2    5    5    0    0 -0.25221337281E+02  0.40626115357E+02  0.35828947322E+02  0.10498477426E+03  0.86322026490E+02 0.  0.
          5    1    3    3  501    0  0.16511912286E+03 -0.10962045460E+03 -0.76436352402E+02  0.21247488033E+03  0.47000000000E+01 0. -1.
        -13    1    4    4    0    0  0.14297105896E+02 -0.34939930896E+02 -0.16930105934E+02  0.41374321686E+02  0.00000000000E+00 0.  1.
         14    1    4    4    0    0  0.72244311550E+01  0.38409372228E+02 -0.19347571110E+02  0.43609641002E+02  0.00000000000E+00 0. -1.
         -5    1    5    5    0  502 -0.16141932263E+03  0.65524897908E+02  0.99805384016E+02  0.20083056203E+03  0.47000000000E+01 0.  1.
         13    1    6    6    0    0 -0.35645021687E+02  0.59199152386E+02  0.74497965029E+01  0.69502566012E+02  0.00000000000E+00 0. -1.
        -14    1    6    6    0    0  0.10423684406E+02 -0.18573037029E+02  0.28379150819E+02  0.35482208250E+02  0.00000000000E+00 0.  1.
</event>
<event>
12    1  0.1596842E-001  0.2080008E+03  0.7818608E-02  0.1143187E+00
         21   -1    0    0  501  502  0.00000000000E+00  0.00000000000E+00  0.20005489276E+03  0.20005489276E+03  0.00000000000E+00 0.  1.
         21   -1    0    0  502  503 -0.00000000000E+00 -0.00000000000E+00 -0.26813296740E+03  0.26813296740E+03  0.00000000000E+00 0. -1.
         -6    2    1    2    0  503  0.79119732489E+02 -0.85350104366E+02 -0.13715231351E+03  0.24914870282E+03  0.17239416066E+03 0.  0.
        -24    2    3    3    0    0  0.86771448776E+02 -0.41573308639E+02 -0.15642378807E+03  0.20048211944E+03  0.80417998160E+02 0.  0.
          6    2    1    2  501    0 -0.79119732489E+02  0.85350104366E+02  0.69074238881E+02  0.21903915734E+03  0.17222755176E+03 0.  0.
         24    2    5    5    0    0  0.34252886247E+01  0.86382943016E+02  0.69965149974E+02  0.13634918824E+03  0.78881135119E+02 0.  0.
          5    1    5    5  501    0 -0.82545021114E+02 -0.10328386501E+01 -0.89091109291E+00  0.82689969095E+02  0.47000000000E+01 0. -1.
        -11    1    6    6    0    0 -0.45868840629E+01  0.17998186115E+02  0.64680182568E+02  0.67294132180E+02  0.00000000000E+00 0.  1.
         12    1    6    6    0    0  0.80121726876E+01  0.68384756901E+02  0.52849674068E+01  0.69055056065E+02  0.00000000000E+00 0. -1.
         -5    1    3    3    0  503 -0.76517162875E+01 -0.43776795728E+02  0.19271474555E+02  0.48666583380E+02  0.47000000000E+01 0. -1.
         13    1    4    4    0    0  0.41600263503E+02  0.12039026927E+02 -0.21315891419E+02  0.48268906346E+02  0.00000000000E+00 0. -1.
        -14    1    4    4    0    0  0.45171185274E+02 -0.53612335565E+02 -0.13510789665E+03  0.15221321310E+03  0.00000000000E+00 0.  1.
</event>
<event>
12    1  0.1596842E-001  0.2223112E+03  0.7818608E-02  0.1132533E+00
         21   -1    0    0  501  502  0.00000000000E+00  0.00000000000E+00  0.71001038173E+02  0.71001038173E+02  0.00000000000E+00 0.  1.
         21   -1    0    0  502  503 -0.00000000000E+00 -0.00000000000E+00 -0.18751170324E+04  0.18751170324E+04  0.00000000000E+00 0.  1.
         -6    2    1    2    0  503 -0.44784185194E+02  0.13133704966E+03 -0.16741799978E+04  0.16886193020E+04  0.17117662885E+03 0.  0.
        -24    2    3    3    0    0 -0.83149800119E+02  0.80590002600E+02 -0.81274633765E+03  0.82482695195E+03  0.79838922375E+02 0.  0.
          6    2    1    2  501    0  0.44784185194E+02 -0.13133704966E+03 -0.12993599640E+03  0.25749876853E+03  0.17368710020E+03 0.  0.
         24    2    5    5    0    0  0.84707359142E+02 -0.10338155678E+03 -0.51135532867E+02  0.16472499824E+03  0.81586759641E+02 0.  0.
          5    1    5    5  501    0 -0.39923173947E+02 -0.27955492878E+02 -0.78800463531E+02  0.92773770285E+02  0.47000000000E+01 0. -1.
        -13    1    6    6    0    0  0.53504063009E+02 -0.13839818215E+02  0.33437977104E+01  0.55366111565E+02  0.00000000000E+00 0.  1.
         14    1    6    6    0    0  0.31203296133E+02 -0.89541738565E+02 -0.54479330577E+02  0.10935888668E+03  0.00000000000E+00 0. -1.
         -5    1    3    3    0  503  0.38365614924E+02  0.50747047059E+02 -0.86143366016E+03  0.86379235007E+03  0.47000000000E+01 0.  1.
         11    1    4    4    0    0  0.89705543437E+00  0.50678868640E+02 -0.25464669589E+03  0.25964223878E+03  0.00000000000E+00 0. -1.
        -12    1    4    4    0    0 -0.84046855553E+02  0.29911133960E+02 -0.55809964176E+03  0.56518471317E+03  0.00000000000E+00 0.  1.
</event>
<event>
12    1  0.1596842E-001  0.2078662E+03  0.7818608E-02  0.1143840E+00
         21   -1    0    0  503  502  0.00000000000E+00  0.00000000000E+00  0.71873867591E+02  0.71873867591E+02  0.00000000000E+00 0.  1.
         21   -1    0    0  501  503 -0.00000000000E+00 -0.00000000000E+00 -0.79697932571E+03  0.79697932571E+03  0.00000000000E+00 0. -1.
          6    2    1    2  501    0 -0.11264594400E+03 -0.27471474610E+02 -0.58418373329E+03  0.62006368796E+03  0.17252406288E+03 0.  0.
         24    2    3    3    0    0 -0.49534880054E+02 -0.75287712070E+02 -0.25427856788E+03  0.28075717885E+03  0.77749980490E+02 0.  0.
         -6    2    1    2    0  502  0.11264594400E+03  0.27471474610E+02 -0.14092172483E+03  0.24878950533E+03  0.16909611119E+03 0.  0.
        -24    2    5    5    0    0  0.20347000971E+01  0.48093665287E+02 -0.82212394035E+02  0.12178951499E+03  0.75872706439E+02 0.  0.
          5    1    3    3  501    0 -0.63111063948E+02  0.47816237459E+02 -0.32990516542E+03  0.33930650911E+03  0.47000000000E+01 0. -1.
        -11    1    4    4    0    0 -0.49872145804E+02 -0.66322042327E+01 -0.11187069876E+03  0.12266323940E+03  0.00000000000E+00 0.  1.
         12    1    4    4    0    0  0.33726574990E+00 -0.68655507837E+02 -0.14240786912E+03  0.15809393945E+03  0.00000000000E+00 0. -1.
         -5    1    5    5    0  502  0.11061124390E+03 -0.20622190677E+02 -0.58709330791E+02  0.12699999035E+03  0.47000000000E+01 0.  1.
         11    1    6    6    0    0  0.21320627373E+02  0.78150603952E+01 -0.72654477751E+02  0.76120414199E+02  0.00000000000E+00 0. -1.
        -12    1    6    6    0    0 -0.19285927276E+02  0.40278604892E+02 -0.95579162835E+01  0.45669100787E+02  0.00000000000E+00 0.  1.
</event>
<event>
12    1  0.1596842E-001  0.1850612E+03  0.7818608E-02  0.1163299E+00
         21   -1    0    0  503  502  0.00000000000E+00  0.00000000000E+00  0.64110359412E+03  0.64110359412E+03  0.00000000000E+00 0.  1.
         21   -1    0    0  501  503 -0.00000000000E+00 -0.00000000000E+00 -0.75773403261E+02  0.75773403261E+02  0.00000000000E+00 0. -1.
          6    2    1    2  501    0  0.25746310256E+02 -0.62897052594E+02  0.85647959926E+02  0.20273430725E+03  0.17072408904E+03 0.  0.
         24    2    3    3    0    0  0.84300520187E+02 -0.41507178547E+02  0.57379945705E+02  0.13412459336E+03  0.76599770229E+02 0.  0.
         -6    2    1    2    0  502 -0.25746310256E+02  0.62897052594E+02  0.47968223094E+03  0.51414269014E+03  0.17213004220E+03 0.  0.
        -24    2    5    5    0    0  0.13113288495E+02 -0.12102556166E+02  0.34716435576E+03  0.35692282189E+03  0.80946776820E+02 0.  0.
          5    1    3    3  501    0 -0.58554209931E+02 -0.21389874047E+02  0.28268014221E+02  0.68609713892E+02  0.47000000000E+01 0. -1.
        -13    1    4    4    0    0  0.25231387418E+02 -0.49303501905E+02  0.49014769428E+02  0.73958811735E+02  0.00000000000E+00 0.  1.
         14    1    4    4    0    0  0.59069132769E+02  0.77963233579E+01  0.83651762769E+01  0.60165781621E+02  0.00000000000E+00 0. -1.
         -5    1    5    5    0  502 -0.38859598751E+02  0.74999608760E+02  0.13251787518E+03  0.15721986824E+03  0.47000000000E+01 0.  1.
         13    1    6    6    0    0  0.22072307235E+02  0.13057467093E+02  0.33827363189E+02  0.42449672483E+02  0.00000000000E+00 0. -1.
        -14    1    6    6    0    0 -0.89590187397E+01 -0.25160023259E+02  0.31333699257E+03  0.31447314941E+03  0.00000000000E+00 0.  1.
</event>
<event>
12    1  0.1596842E-001  0.2144863E+03  0.7818608E-02  0.1140371E+00
         21   -1    0    0  501  502  0.00000000000E+00  0.00000000000E+00  0.75588720618E+03  0.75588720618E+03  0.00000000000E+00 0. -1.
         21   -1    0    0  502  503 -0.00000000000E+00 -0.00000000000E+00 -0.86665413818E+02  0.86665413818E+02  0.00000000000E+00 0.  1.
         -6    2    1    2    0  503  0.60397237742E+02 -0.88920764284E+02  0.96926571696E+02  0.23537021379E+03  0.18560616529E+03 0.  0.
        -24    2    3    3    0    0  0.72495864841E+02 -0.54004191609E+02  0.13625414427E+03  0.18120111015E+03  0.78080390353E+02 0.  0.
          6    2    1    2  501    0 -0.60397237742E+02  0.88920764284E+02  0.57229522066E+03  0.60718240620E+03  0.17202885269E+03 0.  0.
         24    2    5    5    0    0  0.61352211949E+01  0.67790683348E+02  0.17624887591E+03  0.20500353355E+03  0.79558562211E+02 0.  0.
          5    1    5    5  501    0 -0.66532458937E+02  0.21130080935E+02  0.39604634476E+03  0.40217887265E+03  0.47000000000E+01 0. -1.
        -11    1    6    6    0    0  0.34041576110E+02  0.83989785959E+01  0.36487436619E+02  0.50603406768E+02  0.00000000000E+00 0.  1.
         12    1    6    6    0    0 -0.27906354915E+02  0.59391704752E+02  0.13976143929E+03  0.15440012678E+03  0.00000000000E+00 0. -1.
         -5    1    3    3    0  503 -0.12098627099E+02 -0.34916572675E+02 -0.39327572576E+02  0.54169103645E+02  0.47000000000E+01 0.  1.
         13    1    4    4    0    0  0.38521013680E+02 -0.70417763604E+02  0.78919716020E+02  0.11256487686E+03  0.00000000000E+00 0. -1.
        -14    1    4    4    0    0  0.33974851161E+02  0.16413571996E+02  0.57334428252E+02  0.68636233289E+02  0.00000000000E+00 0.  1.
</event>
<event>
12    1  0.1596842E-001  0.1833344E+03  0.7818608E-02  0.1164959E+00
         21   -1    0    0  503  502  0.00000000000E+00  0.00000000000E+00  0.85998284261E+02  0.85998284261E+02  0.00000000000E+00 0.  1.
         21   -1    0    0  501  503 -0.00000000000E+00 -0.00000000000E+00 -0.54980289430E+03  0.54980289430E+03  0.00000000000E+00 0.  1.
          6    2    1    2  501    0  0.47415185891E+02 -0.30713201769E+02 -0.40514193596E+03  0.44469257899E+03  0.17441330487E+03 0.  0.
         24    2    3    3    0    0  0.76214138575E+02  0.11464114684E+02 -0.30105241583E+03  0.32865368939E+03  0.10696106593E+03 0.  0.
         -6    2    1    2    0  502 -0.47415185891E+02  0.30713201769E+02 -0.58662674079E+02  0.19110859957E+03  0.17288634095E+03 0.  0.
        -24    2    5    5    0    0 -0.69322441988E+02 -0.22159227851E+02 -0.55181546561E+01  0.11286633716E+03  0.86091391498E+02 0.  0.
          5    1    3    3  501    0 -0.28798952685E+02 -0.42177316452E+02 -0.10408952013E+03  0.11603888960E+03  0.47000000000E+01 0. -1.
        -11    1    4    4    0    0 -0.13520489264E+01 -0.37516364983E+02 -0.11921683886E+03  0.12498784079E+03  0.00000000000E+00 0.  1.
         12    1    4    4    0    0  0.77566187501E+02  0.48980479666E+02 -0.18183557697E+03  0.20366584860E+03  0.00000000000E+00 0. -1.
         -5    1    5    5    0  502  0.21907256097E+02  0.52872429620E+02 -0.53144519423E+02  0.78242262419E+02  0.47000000000E+01 0.  1.
         13    1    6    6    0    0 -0.40736878203E+01 -0.37370817128E+02 -0.22418213572E+02  0.43769272384E+02  0.00000000000E+00 0. -1.
        -14    1    6    6    0    0 -0.65248754167E+02  0.15211589277E+02  0.16900058916E+02  0.69097064772E+02  0.00000000000E+00 0.  1.
</event>
<event>
12    1  0.1596842E-001  0.1883835E+03  0.7818608E-02  0.1160047E+00
         21   -1    0    0  503  502  0.00000000000E+00  0.00000000000E+00  0.15657493586E+03  0.15657493586E+03  0.00000000000E+00 0. -1.
         21   -1    0    0  501  503 -0.00000000000E+00 -0.00000000000E+00 -0.30255657630E+03  0.30255657630E+03  0.00000000000E+00 0. -1.
          6    2    1    2  501    0 -0.28655675772E+02  0.73107446700E+02 -0.18852564832E+03  0.26651506659E+03  0.17123817953E+03 0.  0.
         24    2    3    3    0    0 -0.19893799073E+02 -0.29874057316E+02 -0.13091277037E+03  0.14809507521E+03  0.59209588023E+02 0.  0.
         -6    2    1    2    0  502  0.28655675772E+02 -0.73107446700E+02  0.42544007875E+02  0.19261644557E+03  0.17066123163E+03 0.  0.
        -24    2    5    5    0    0  0.69289847855E+02 -0.15714700663E+02 -0.32072244992E+01  0.10859068463E+03  0.82058611166E+02 0.  0.
          5    1    3    3  501    0 -0.87618766985E+01  0.10298150402E+03 -0.57612877948E+02  0.11841999138E+03  0.47000000000E+01 0. -1.
        -13    1    4    4    0    0  0.12378570933E+02 -0.33745316662E+02 -0.79818025684E+02  0.87537949708E+02  0.00000000000E+00 0.  1.
         14    1    4    4    0    0 -0.32272370006E+02  0.38712593466E+01 -0.51094744688E+02  0.60557125505E+02  0.00000000000E+00 0. -1.
         -5    1    5    5    0  502 -0.40634172083E+02 -0.57392746037E+02  0.45751232374E+02  0.84025760944E+02  0.47000000000E+01 0.  1.
         13    1    6    6    0    0  0.63083051348E+02 -0.29402370039E+02  0.27158033923E+02  0.74709634840E+02  0.00000000000E+00 0. -1.
        -14    1    6    6    0    0  0.62067965061E+01  0.13687669375E+02 -0.30365258422E+02  0.33881049789E+02  0.00000000000E+00 0.  1.
</event>
<event>
12    1  0.1596842E-001  0.1764999E+03  0.7818608E-02  0.1171381E+00
         21   -1    0    0  501  502  0.00000000000E+00  0.00000000000E+00  0.17020926293E+03  0.17020926293E+03  0.00000000000E+00 0.  1.
         21   -1    0    0  502  503 -0.00000000000E+00 -0.00000000000E+00 -0.18729655226E+03  0.18729655226E+03  0.00000000000E+00 0.  1.
         -6    2    1    2    0  503 -0.27089303222E+02 -0.27178607328E+02 -0.37428596998E+02  0.18042479028E+03  0.17227796734E+03 0.  0.
        -24    2    3    3    0    0  0.13791677496E+02 -0.74034093671E+02 -0.33014514038E+02  0.11790866985E+03  0.84505851252E+02 0.  0.
          6    2    1    2  501    0  0.27089303222E+02  0.27178607328E+02  0.20341307662E+02  0.17708102491E+03  0.17167240180E+03 0.  0.
         24    2    5    5    0    0  0.50565989249E+02  0.18503226018E+02  0.71233172441E+02  0.12017330199E+03  0.80424927805E+02 0.  0.
          5    1    5    5  501    0 -0.23476686027E+02  0.86753813102E+01 -0.50891864779E+02  0.56907722924E+02  0.47000000000E+01 0. -1.
        -11    1    6    6    0    0  0.40788451875E+02 -0.16927271865E+02  0.70766591816E+02  0.83415471325E+02  0.00000000000E+00 0.  1.
         12    1    6    6    0    0  0.97775373736E+01  0.35430497883E+02  0.46658062453E+00  0.36757830660E+02  0.00000000000E+00 0. -1.
         -5    1    3    3    0  503 -0.40880980718E+02  0.46855486342E+02 -0.44140829602E+01  0.62516120426E+02  0.47000000000E+01 0.  1.
         11    1    4    4    0    0 -0.22698848640E+02 -0.18470313631E+02  0.17785978747E+02  0.34245163968E+02  0.00000000000E+00 0. -1.
        -12    1    4    4    0    0  0.36490526136E+02 -0.55563780040E+02 -0.50800492785E+02  0.83663505886E+02  0.00000000000E+00 0.  1.
</event>
<event>
12    1  0.1596842E-001  0.4746997E+03  0.7818608E-02  0.1020764E+00
         21   -1    0    0  503  502  0.00000000000E+00  0.00000000000E+00  0.46220650111E+03  0.46220650111E+03  0.00000000000E+00 0. -1.
         21   -1    0    0  501  503 -0.00000000000E+00 -0.00000000000E+00 -0.65899663110E+03  0.65899663110E+03  0.00000000000E+00 0.  1.
          6    2    1    2  501    0 -0.40721245284E+03 -0.16686357488E+03  0.18935578097E+03  0.51107280497E+03  0.17797293565E+03 0.  0.
         24    2    3    3    0    0 -0.72730647551E+02 -0.39054928360E+02  0.37988721544E+02  0.12229625620E+03  0.81842512142E+02 0.  0.
         -6    2    1    2    0  502  0.40721245284E+03  0.16686357488E+03 -0.38614591096E+03  0.61013032724E+03  0.17171172732E+03 0.  0.
        -24    2    5    5    0    0  0.13410610142E+03  0.91454690066E+01 -0.14095431756E+03  0.21062677584E+03  0.80171273044E+02 0.  0.
          5    1    3    3  501    0 -0.33448180529E+03 -0.12780864652E+03  0.15136705943E+03  0.38877654877E+03  0.47000000000E+01 0. -1.
        -13    1    4    4    0    0 -0.21195371901E+02 -0.41812576778E+02  0.50796471099E+02  0.69121753760E+02  0.00000000000E+00 0.  1.
         14    1    4    4    0    0 -0.51535275650E+02  0.27576484172E+01 -0.12807749555E+02  0.53174502440E+02  0.00000000000E+00 0. -1.
         -5    1    5    5    0  502  0.27310635142E+03  0.15771810587E+03 -0.24519159340E+03  0.39950355140E+03  0.47000000000E+01 0.  1.
         11    1    6    6    0    0  0.13639777282E+02 -0.19801450417E+01 -0.67936085437E+02  0.69320099562E+02  0.00000000000E+00 0. -1.
        -12    1    6    6    0    0  0.12046632414E+03  0.11125614048E+02 -0.73018232125E+02  0.14130667628E+03  0.00000000000E+00 0.  1.
</event>
<event>
12    1  0.1596842E-001  0.1948264E+03  0.7818608E-02  0.1154302E+00
         21   -1    0    0  501  502  0.00000000000E+00  0.00000000000E+00  0.71878109888E+03  0.71878109888E+03  0.00000000000E+00 0.  1.
         21   -1    0    0  502  503 -0.00000000000E+00 -0.00000000000E+00 -0.22867000681E+03  0.22867000681E+03  0.00000000000E+00 0.  1.
         -6    2    1    2    0  503  0.89885596060E+02 -0.41078370552E+01 -0.17064569691E+03  0.25857023212E+03  0.17216944084E+03 0.  0.
        -24    2    3    3    0    0  0.12218709231E+03 -0.32335990013E+02 -0.11434234774E+03  0.18763101584E+03  0.78459695648E+02 0.  0.
          6    2    1    2  501    0 -0.89885596060E+02  0.41078370552E+01  0.66075678899E+03  0.68888087357E+03  0.17280344058E+03 0.  0.
         24    2    5    5    0    0 -0.92423330578E+02  0.61351474385E+02  0.49180993594E+03  0.51041966416E+03  0.79656418600E+02 0.  0.
          5    1    5    5  501    0  0.25377345176E+01 -0.57243637329E+02  0.16894685305E+03  0.17846120941E+03  0.47000000000E+01 0. -1.
        -13    1    6    6    0    0 -0.77507984252E+02  0.55578502138E+01  0.24942427982E+03  0.26124863384E+03  0.00000000000E+00 0.  1.
         14    1    6    6    0    0 -0.14915346326E+02  0.55793624171E+02  0.24238565612E+03  0.24917103031E+03  0.00000000000E+00 0. -1.
         -5    1    3    3    0  503 -0.32301496245E+02  0.28228152958E+02 -0.56303349173E+02  0.70939216286E+02  0.47000000000E+01 0.  1.
         13    1    4    4    0    0  0.24083808369E+02  0.30470343452E+01  0.91955471321E+01  0.25959051040E+02  0.00000000000E+00 0. -1.
        -14    1    4    4    0    0  0.98103283936E+02 -0.35383024359E+02 -0.12353789487E+03  0.16167196480E+03  0.00000000000E+00 0.  1.
</event>
<event>
12    1  0.1596842E-001  0.3802979E+03  0.7818608E-02  0.1051256E+00
         21   -1    0    0  503  502  0.00000000000E+00  0.00000000000E+00  0.78722724621E+03  0.78722724621E+03  0.00000000000E+00 0. -1.
         21   -1    0    0  501  503 -0.00000000000E+00 -0.00000000000E+00 -0.20013113158E+03  0.20013113158E+03  0.00000000000E+00 0.  1.
          6    2    1    2  501    0 -0.18106923426E+03 -0.28656413372E+03  0.14117396177E+03  0.40129260260E+03  0.16186597879E+03 0.  0.
         24    2    3    3    0    0 -0.16020444427E+03 -0.21566267391E+03  0.16439896629E+03  0.32367915467E+03  0.74601086896E+02 0.  0.
         -6    2    1    2    0  502  0.18106923426E+03  0.28656413372E+03  0.44592215287E+03  0.58606577519E+03  0.17239911861E+03 0.  0.
        -24    2    5    5    0    0  0.88811234080E+02  0.12673879780E+03  0.31429350232E+03  0.35934156332E+03  0.79973716721E+02 0.  0.
          5    1    3    3  501    0 -0.20864789986E+02 -0.70901459806E+02 -0.23225004527E+02  0.77613447926E+02  0.47000000000E+01 0. -1.
        -11    1    4    4    0    0 -0.90613768267E+02 -0.15815314728E+03  0.76493152048E+02  0.19767264683E+03  0.00000000000E+00 0.  1.
         12    1    4    4    0    0 -0.69590676007E+02 -0.57509526634E+02  0.87905814245E+02  0.12600650784E+03  0.00000000000E+00 0. -1.
         -5    1    5    5    0  502  0.92258000180E+02  0.15982533592E+03  0.13162865055E+03  0.22672421187E+03  0.47000000000E+01 0.  1.
         11    1    6    6    0    0  0.65601741317E+02  0.37883446719E+02  0.94375536180E+02  0.12101853506E+03  0.00000000000E+00 0. -1.
        -12    1    6    6    0    0  0.23209492763E+02  0.88855351076E+02  0.21991796614E+03  0.23832302826E+03  0.00000000000E+00 0.  1.
</event>
<event>
12    1  0.1596842E-001  0.1924058E+03  0.7818608E-02  0.1156981E+00
         21   -1    0    0  503  502  0.00000000000E+00  0.00000000000E+00  0.21271183164E+03  0.21271183164E+03  0.00000000000E+00 0. -1.
         21   -1    0    0  501  503 -0.00000000000E+00 -0.00000000000E+00 -0.17197781281E+03  0.17197781281E+03  0.00000000000E+00 0.  1.
          6    2    1    2  501    0  0.33215815394E+02 -0.72573962194E+02  0.87383444910E+01  0.19260415214E+03  0.17507064395E+03 0.  0.
         24    2    3    3    0    0  0.31805228596E+02 -0.10292644131E+03 -0.36381158322E+02  0.13800449758E+03  0.78206315494E+02 0.  0.
         -6    2    1    2    0  502 -0.33215815394E+02  0.72573962194E+02  0.31995674334E+02  0.19208549231E+03  0.17176391589E+03 0.  0.
        -24    2    5    5    0    0  0.20911940573E+01 -0.27702870821E+02  0.93854022005E+01  0.83295131703E+02  0.77962625960E+02 0.  0.
          5    1    3    3  501    0  0.14105867986E+01  0.30352479120E+02  0.45119502813E+02  0.54599654559E+02  0.47000000000E+01 0. -1.
        -11    1    4    4    0    0  0.52531535228E+02 -0.72997484251E+02 -0.52223637624E+01  0.90085892256E+02  0.00000000000E+00 0.  1.
         12    1    4    4    0    0 -0.20726306632E+02 -0.29928957063E+02 -0.31158794560E+02  0.47918605321E+02  0.00000000000E+00 0. -1.
         -5    1    5    5    0  502 -0.35307009452E+02  0.10027683301E+03  0.22610272133E+02  0.10879036061E+03  0.47000000000E+01 0.  1.
         13    1    6    6    0    0  0.55755601655E+01 -0.17804458744E+02  0.43644439329E+02  0.47464962937E+02  0.00000000000E+00 0. -1.
        -14    1    6    6    0    0 -0.34843661082E+01 -0.98984120770E+01 -0.34259037128E+02  0.35830168766E+02  0.00000000000E+00 0.  1.
</event>
<event>
12    1  0.1596842E-001  0.2040926E+03  0.7818608E-02  0.1146423E+00
         21   -1    0    0  503  502  0.00000000000E+00  0.00000000000E+00  0.76457605757E+03  0.76457605757E+03  0.00000000000E+00 0.  1.
         21   -1    0    0  501  503 -0.00000000000E+00 -0.00000000000E+00 -0.57276271508E+02  0.57276271508E+02  0.00000000000E+00 0. -1.
          6    2    1    2  501    0 -0.77660874859E+02 -0.78076171948E+02  0.26130315844E+03  0.33156168001E+03  0.17183336967E+03 0.  0.
         24    2    3    3    0    0 -0.68642312101E+02  0.19991604418E+02  0.14019485421E+03  0.17539531171E+03  0.77443443649E+02 0.  0.
         -6    2    1    2    0  502  0.77660874859E+02  0.78076171948E+02  0.44599662763E+03  0.49029064907E+03  0.17130332338E+03 0.  0.
        -24    2    5    5    0    0  0.48018687476E+01  0.88260630014E+02  0.35096034876E+03  0.37001537207E+03  0.76975401334E+02 0.  0.
          5    1    3    3  501    0 -0.90185627580E+01 -0.98067776366E+02  0.12110830423E+03  0.15616636830E+03  0.47000000000E+01 0. -1.
        -13    1    4    4    0    0 -0.56617252001E+02 -0.28861097371E+01  0.13831435767E+03  0.14948145166E+03  0.00000000000E+00 0.  1.
         14    1    4    4    0    0 -0.12025060100E+02  0.22877714155E+02  0.18804965445E+01  0.25913860048E+02  0.00000000000E+00 0. -1.
         -5    1    5    5    0  502  0.72859006111E+02 -0.10184458066E+02  0.95036278868E+02  0.12027527701E+03  0.47000000000E+01 0.  1.
         11    1    6    6    0    0 -0.20805732198E+02  0.19549427741E+02  0.32665148985E+02  0.43382837338E+02  0.00000000000E+00 0. -1.
        -12    1    6    6    0    0  0.25607600945E+02  0.68711202273E+02  0.31829519978E+03  0.32663253473E+03  0.00000000000E+00 0.  1.
</event>
<event>
12    1  0.1596842E-001  0.1806250E+03  0.7818608E-02  0.1167225E+00
         21   -1    0    0  501  502  0.00000000000E+00  0.00000000000E+00  0.82374989579E+03  0.82374989579E+03  0.00000000000E+00 0.  1.
         21   -1    0    0  502  503 -0.00000000000E+00 -0.00000000000E+00 -0.63151869474E+02  0.63151869474E+02  0.00000000000E+00 0.  1.
         -6    2    1    2    0  503 -0.56823031995E+02 -0.36019628197E+00  0.10931753348E+03  0.21103811858E+03  0.17134111492E+03 0.  0.
        -24    2    3    3    0    0  0.43679807271E+01 -0.29324840965E+02  0.18885496809E+01  0.83969762013E+02  0.78538708669E+02 0.  0.
          6    2    1    2  501    0  0.56823031995E+02  0.36019628197E+00  0.65128049283E+03  0.67586364668E+03  0.17145378928E+03 0.  0.
         24    2    5    5    0    0  0.56762865595E+02  0.40745457001E+02  0.22137422750E+03  0.24403907597E+03  0.75274875099E+02 0.  0.
          5    1    5    5  501    0  0.60166399954E-01 -0.40385260719E+02  0.42990626533E+03  0.43182457072E+03  0.47000000000E+01 0. -1.
        -13    1    6    6    0    0  0.53306206275E+02  0.40047846809E+02  0.22744630404E+03  0.23701730503E+03  0.00000000000E+00 0.  1.
         14    1    6    6    0    0  0.34566593195E+01  0.69761019188E+00 -0.60720765393E+01  0.70217709398E+01  0.00000000000E+00 0. -1.
         -5    1    3    3    0  503 -0.61191012722E+02  0.28964644683E+02  0.10742898380E+03  0.12706835657E+03  0.47000000000E+01 0.  1.
         13    1    4    4    0    0 -0.32509646429E+02 -0.11201867481E+02 -0.17445985247E+02  0.38558025717E+02  0.00000000000E+00 0. -1.
        -14    1    4    4    0    0  0.36877627156E+02 -0.18122973484E+02  0.19334534928E+02  0.45411736296E+02  0.00000000000E+00 0.  1.
</event>
<event>
12    1  0.1596842E-001  0.2374542E+03  0.7818608E-02  0.1121788E+00
         21   -1    0    0  503  502  0.00000000000E+00  0.00000000000E+00  0.12849809668E+03  0.12849809668E+03  0.00000000000E+00 0.  1.
         21   -1    0    0  501  503 -0.00000000000E+00 -0.00000000000E+00 -0.45787855740E+03  0.45787855740E+03  0.00000000000E+00 0.  1.
          6    2    1    2  501    0 -0.57985100970E+02  0.15159372675E+03 -0.22982529812E+03  0.33046052881E+03  0.17332502277E+03 0.  0.
         24    2    3    3    0    0 -0.83119063065E+01  0.11926221608E+03 -0.70300367403E+02  0.16021645000E+03  0.80215991059E+02 0.  0.
         -6    2    1    2    0  502  0.57985100970E+02 -0.15159372675E+03 -0.99555162602E+02  0.25591612527E+03  0.17099386786E+03 0.  0.
        -24    2    5    5    0    0  0.19029847049E+02 -0.21499885752E+02 -0.85362413375E+02  0.11929459181E+03  0.78230926437E+02 0.  0.
          5    1    3    3  501    0 -0.49673194664E+02  0.32331510673E+02 -0.15952493072E+03  0.17024407881E+03  0.47000000000E+01 0. -1.
        -13    1    4    4    0    0  0.53184831163E+00  0.11124594075E+03 -0.85916021183E+02  0.14056139190E+03  0.00000000000E+00 0.  1.
         14    1    4    4    0    0 -0.88437546182E+01  0.80162753281E+01  0.15615653780E+02  0.19655058098E+02  0.00000000000E+00 0. -1.
         -5    1    5    5    0  502  0.38955253922E+02 -0.13009384100E+03 -0.14192749227E+02  0.13662153346E+03  0.47000000000E+01 0.  1.
         11    1    6    6    0    0 -0.11237877532E+02  0.21533984336E+00  0.11156296353E+02  0.15836641405E+02  0.00000000000E+00 0. -1.
        -12    1    6    6    0    0  0.30267724580E+02 -0.21715225595E+02 -0.96518709728E+02  0.10345795040E+03  0.00000000000E+00 0.  1.
</event>
<event>
12    1  0.1596842E-001  0.1932522E+03  0.7818608E-02  0.1155648E+00
         21   -1    0    0  501  502  0.00000000000E+00  0.00000000000E+00  0.52087971693E+03  0.52087971693E+03  0.00000000000E+00 0.  1.
         21   -1    0    0  502  503 -0.00000000000E+00 -0.00000000000E+00 -0.71973677968E+02  0.71973677968E+02  0.00000000000E+00 0.  1.
         -6    2    1    2    0  503 -0.59666735327E+02 -0.65819719276E+02  0.24739615119E+03  0.31392873257E+03  0.17162178987E+03 0.  0.
        -24    2    3    3    0    0 -0.63282079220E+02 -0.83000364417E+02  0.10172136796E+03  0.16712451687E+03  0.81790496972E+02 0.  0.
          6    2    1    2  501    0  0.59666735327E+02  0.65819719276E+02  0.20150988777E+03  0.27892466233E+03  0.17117353077E+03 0.  0.
         24    2    5    5    0    0  0.22390125097E+02 -0.15531826759E+02  0.15825021912E+03  0.17942034763E+03  0.80037328451E+02 0.  0.
          5    1    5    5  501    0  0.37276610230E+02  0.81351546035E+02  0.43259668649E+02  0.99504314701E+02  0.47000000000E+01 0. -1.
        -13    1    6    6    0    0  0.18824565108E+02 -0.46691928349E+02  0.73816688339E+02  0.89349895924E+02  0.00000000000E+00 0.  1.
         14    1    6    6    0    0  0.35655599894E+01  0.31160101589E+02  0.84433530785E+02  0.90070451703E+02  0.00000000000E+00 0. -1.
         -5    1    3    3    0  503  0.36153438934E+01  0.17180645141E+02  0.14567478322E+03  0.14680421570E+03  0.47000000000E+01 0.  1.
         13    1    4    4    0    0 -0.21887999947E+02 -0.32118828016E+01 -0.95388365074E+01  0.24091287528E+02  0.00000000000E+00 0. -1.
        -14    1    4    4    0    0 -0.41394079273E+02 -0.79788481615E+02  0.11126020447E+03  0.14303322934E+03  0.00000000000E+00 0.  1.
</event>
<event>
12    1  0.1596842E-001  0.3160680E+03  0.7818608E-02  0.1077881E+00
         21   -1    0    0  501  502  0.00000000000E+00  0.00000000000E+00  0.14035629846E+03  0.14035629846E+03  0.00000000000E+00 0.  1.
         21   -1    0    0  502  503 -0.00000000000E+00 -0.00000000000E+00 -0.78416194430E+03  0.78416194430E+03  0.00000000000E+00 0. -1.
         -6    2    1    2    0  503  0.22942233761E+03 -0.13245573120E+03 -0.46813776701E+03  0.56291324300E+03  0.16594945170E+03 0.  0.
        -24    2    3    3    0    0  0.80210288422E+02 -0.68122866532E+02 -0.31165728663E+03  0.33727817516E+03  0.74510991241E+02 0.  0.
          6    2    1    2  501    0 -0.22942233761E+03  0.13245573120E+03 -0.17566787882E+03  0.36160499976E+03  0.17239443867E+03 0.  0.
         24    2    5    5    0    0 -0.55660680905E+02  0.68681026828E+02 -0.11720034397E+03  0.16743788388E+03  0.80525334450E+02 0.  0.
          5    1    5    5  501    0 -0.17376165670E+03  0.63774704369E+02 -0.58467534856E+02  0.19416711588E+03  0.47000000000E+01 0. -1.
        -11    1    6    6    0    0 -0.49493912666E+02  0.36711800219E+02 -0.19778322217E+02  0.64719283803E+02  0.00000000000E+00 0.  1.
         12    1    6    6    0    0 -0.61667682396E+01  0.31969226609E+02 -0.97422021751E+02  0.10271860008E+03  0.00000000000E+00 0. -1.
         -5    1    3    3    0  503  0.14921204918E+03 -0.64332864666E+02 -0.15648048038E+03  0.22563506784E+03  0.47000000000E+01 0.  1.
         11    1    4    4    0    0  0.49398991197E+02 -0.31724104994E+02 -0.26173606238E+03  0.26823953012E+03  0.00000000000E+00 0. -1.
        -12    1    4    4    0    0  0.30811297226E+02 -0.36398761538E+02 -0.49921224252E+02  0.69038645041E+02  0.00000000000E+00 0.  1.
</event>
<event>
12    1  0.1596842E-001  0.2272861E+03  0.7818608E-02  0.1128630E+00
         21   -1    0    0  503  502  0.00000000000E+00  0.00000000000E+00  0.34152017312E+03  0.34152017312E+03  0.00000000000E+00 0.  1.
         21   -1    0    0  501  503 -0.00000000000E+00 -0.00000000000E+00 -0.16464876444E+03  0.16464876444E+03  0.00000000000E+00 0. -1.
          6    2    1    2  501    0  0.67333199218E+02  0.13241959346E+03  0.16132051288E+03  0.27871723782E+03  0.17201826163E+03 0.  0.
         24    2    3    3    0    0  0.10245120642E+03  0.79393409300E+02  0.15109004731E+03  0.21412774129E+03  0.78885512321E+02 0.  0.
         -6    2    1    2    0  502 -0.67333199218E+02 -0.13241959346E+03  0.15550895797E+02  0.22745169974E+03  0.17153348625E+03 0.  0.
        -24    2    5    5    0    0 -0.10853854178E+02 -0.12637240778E+03 -0.31967488809E+02  0.15324542139E+03  0.79840135512E+02 0.  0.
          5    1    3    3  501    0 -0.35118007202E+02  0.53026184165E+02  0.10230465566E+02  0.64589496535E+02  0.47000000000E+01 0. -1.
        -11    1    4    4    0    0  0.10165495689E+02  0.40374580112E+02  0.83386031023E+02  0.93202329325E+02  0.00000000000E+00 0.  1.
         12    1    4    4    0    0  0.92285710731E+02  0.39018829188E+02  0.67704016291E+02  0.12092541196E+03  0.00000000000E+00 0. -1.
         -5    1    5    5    0  502 -0.56479345040E+02 -0.60471856857E+01  0.47518384606E+02  0.74206278349E+02  0.47000000000E+01 0.  1.
         13    1    6    6    0    0 -0.31193975644E+02 -0.12030624753E+03 -0.39981934774E+02  0.13055731470E+03  0.00000000000E+00 0. -1.
        -14    1    6    6    0    0  0.20340121466E+02 -0.60661602451E+01  0.80144459650E+01  0.22688106697E+02  0.00000000000E+00 0.  1.
</event>
<event>
12    1  0.1596842E-001  0.1761561E+03  0.7818608E-02  0.1171640E+00
         21   -1    0    0  503  502  0.00000000000E+00  0.00000000000E+00  0.10874405721E+03  0.10874405721E+03  0.00000000000E+00 0. -1.
         21   -1    0    0  501  503 -0.00000000000E+00 -0.00000000000E+00 -0.35752095806E+03  0.35752095806E+03  0.00000000000E+00 0. -1.
          6    2    1    2  501    0 -0.16590903255E+01  0.32025649286E+02 -0.22935803950E+03  0.28904178986E+03  0.17294985171E+03 0.  0.
         24    2    3    3    0    0 -0.15706666944E+02  0.86049643363E+02 -0.15933509771E+03  0.19936889137E+03  0.81908735655E+02 0.  0.
         -6    2    1    2    0  502  0.16590903255E+01 -0.32025649286E+02 -0.19418861348E+02  0.17722322541E+03  0.17321254186E+03 0.  0.
        -24    2    5    5    0    0  0.49903610186E+02 -0.65344569129E+02 -0.28982468103E+02  0.11763097180E+03  0.78973280579E+02 0.  0.
          5    1    3    3  501    0  0.14047576619E+02 -0.54023994077E+02 -0.70022941798E+02  0.89672898486E+02  0.47000000000E+01 0. -1.
        -13    1    4    4    0    0 -0.30050171569E+02  0.97088498945E+02 -0.13220205737E+03  0.16675303119E+03  0.00000000000E+00 0.  1.
         14    1    4    4    0    0  0.14343504625E+02 -0.11038855581E+02 -0.27133040332E+02  0.32615860178E+02  0.00000000000E+00 0. -1.
         -5    1    5    5    0  502 -0.48244519860E+02  0.33318919843E+02  0.95636067553E+01  0.59592253609E+02  0.47000000000E+01 0.  1.
         11    1    6    6    0    0  0.52593763154E+02 -0.96971619712E+01 -0.31123620281E+02  0.61877448334E+02  0.00000000000E+00 0. -1.
        -12    1    6    6    0    0 -0.26901529681E+01 -0.55647407157E+02  0.21411521780E+01  0.55753523467E+02  0.00000000000E+00 0.  1.
</event>
<event>
12    1  0.1596842E-001  0.1844656E+03  0.7818608E-02  0.1164277E+00
         21   -1    0    0  501  502  0.00000000000E+00  0.00000000000E+00  0.80492603899E+03  0.80492603899E+03  0.00000000000E+00 0. -1.
         21   -1    0    0  502  503 -0.00000000000E+00 -0.00000000000E+00 -0.60897993943E+02  0.60897993943E+02  0.00000000000E+00 0. -1.
         -6    2    1    2    0  503  0.63711120924E+02  0.30858133091E+02  0.13028022635E+03  0.22583287004E+03  0.17034147031E+03 0.  0.
        -24    2    3    3    0    0  0.36890850112E+01  0.73944868808E+02  0.59087439215E+02  0.12312155358E+03  0.78652008948E+02 0.  0.
          6    2    1    2  501    0 -0.63711120924E+02 -0.30858133091E+02  0.61374781870E+03  0.63999116289E+03  0.16700590502E+03 0.  0.
         24    2    5    5    0    0  0.30534191842E+02 -0.27423010130E+02  0.33034392371E+03  0.34127083090E+03  0.75195170968E+02 0.  0.
          5    1    5    5  501    0 -0.94245312766E+02 -0.34351229610E+01  0.28340389500E+03  0.29872033199E+03  0.47000000000E+01 0. -1.
        -11    1    6    6    0    0  0.20140463239E+02  0.25064908764E+02  0.12225289005E+03  0.12641066821E+03  0.00000000000E+00 0.  1.
         12    1    6    6    0    0  0.10393728603E+02 -0.52487918894E+02  0.20809103366E+03  0.21486016269E+03  0.00000000000E+00 0. -1.
         -5    1    3    3    0  503  0.60022035912E+02 -0.43086735717E+02  0.71192787131E+02  0.10271131646E+03  0.47000000000E+01 0.  1.
         13    1    4    4    0    0  0.22369866680E+02  0.62490034248E+02  0.71582142061E+01  0.66758185612E+02  0.00000000000E+00 0. -1.
        -14    1    4    4    0    0 -0.18680781669E+02  0.11454834560E+02  0.51929225009E+02  0.56363367967E+02  0.00000000000E+00 0.  1.
</event>
<event>
12    1  0.1596842E-001  0.2185550E+03  0.7818608E-02  0.1135141E+00
         21   -1    0    0  503  502  0.00000000000E+00  0.00000000000E+00  0.22063111800E+03  0.22063111800E+03  0.00000000000E+00 0. -1.
         21   -1    0    0  501  503 -0.00000000000E+00 -0.00000000000E+00 -0.10602152908E+04  0.10602152908E+04  0.00000000000E+00 0. -1.
          6    2    1    2  501    0 -0.82815316462E+02  0.10682141208E+03 -0.99159206497E+03  0.10153920881E+04  0.17174713536E+03 0.  0.
         24    2    3    3    0    0  0.60597222290E+01  0.54144721136E+02 -0.27028803256E+03  0.28671163449E+03  0.78610239455E+02 0.  0.
         -6    2    1    2    0  502  0.82815316462E+02 -0.10682141208E+03  0.15200789212E+03  0.26545432077E+03  0.17055909951E+03 0.  0.
        -24    2    5    5    0    0  0.30569140239E+02 -0.63932468165E+00  0.24101265048E+02  0.91137098826E+02  0.82402783537E+02 0.  0.
          5    1    3    3  501    0 -0.88875038691E+02  0.52676690944E+02 -0.72130403242E+03  0.72868045359E+03  0.47000000000E+01 0. -1.
        -11    1    4    4    0    0  0.95125637719E+01 -0.19607208682E+02 -0.64039799019E+02  0.67646340331E+02  0.00000000000E+00 0.  1.
         12    1    4    4    0    0 -0.34528415428E+01  0.73751929818E+02 -0.20624823354E+03  0.21906529416E+03  0.00000000000E+00 0. -1.
         -5    1    5    5    0  502  0.52246176223E+02 -0.10618208740E+03  0.12790662708E+03  0.17431722194E+03  0.47000000000E+01 0.  1.
         13    1    6    6    0    0  0.27975142963E+02 -0.15597220970E+02  0.51015401204E+02  0.60236642385E+02  0.00000000000E+00 0. -1.
        -14    1    6    6    0    0  0.25939972754E+01  0.14957896288E+02 -0.26914136157E+02  0.30900456441E+02  0.00000000000E+00 0.  1.
</event>
<event>
12    1  0.1596842E-001  0.1773843E+03  0.7818608E-02  0.1170896E+00
         21   -1    0    0  503  502  0.00000000000E+00  0.00000000000E+00  0.37192791475E+03  0.37192791475E+03  0.00000000000E+00 0. -1.
         21   -1    0    0  501  503 -0.00000000000E+00 -0.00000000000E+00 -0.33311868838E+03  0.33311868838E+03  0.00000000000E+00 0. -1.
          6    2    1    2  501    0 -0.34900851705E+02 -0.21337434401E+02 -0.28567967578E+03  0.33627084612E+03  0.17260315535E+03 0.  0.
         24    2    3    3    0    0 -0.86086341976E+02  0.14808293658E+01 -0.13291330672E+03  0.17348177679E+03  0.70830280567E+02 0.  0.
         -6    2    1    2    0  502  0.34900851705E+02  0.21337434401E+02  0.32448890215E+03  0.36877575701E+03  0.17037944648E+03 0.  0.
        -24    2    5    5    0    0  0.23330124428E+02 -0.41628366031E+02  0.26576600572E+03  0.28177551380E+03  0.80552186904E+02 0.  0.
          5    1    3    3  501    0  0.51185490271E+02 -0.22818263766E+02 -0.15276636906E+03  0.16278906932E+03  0.47000000000E+01 0. -1.
        -13    1    4    4    0    0 -0.51304561694E+02 -0.18627232243E+02 -0.11907647947E+03  0.13098984615E+03  0.00000000000E+00 0.  1.
         14    1    4    4    0    0 -0.34781780283E+02  0.20108061609E+02 -0.13836827251E+02  0.42491930642E+02  0.00000000000E+00 0. -1.
         -5    1    5    5    0  502  0.11570727277E+02  0.62965800432E+02  0.58722896434E+02  0.87000243214E+02  0.47000000000E+01 0.  1.
         11    1    6    6    0    0 -0.20470676938E+02  0.12300661484E+02  0.59044109044E+02  0.63691143026E+02  0.00000000000E+00 0. -1.
        -12    1    6    6    0    0  0.43800801366E+02 -0.53929027515E+02  0.20672189668E+03  0.21808437077E+03  0.00000000000E+00 0.  1.
</event>
<event>
12    1  0.1596842E-001  0.1901883E+03  0.7818608E-02  0.1158337E+00
         21   -1    0    0  503  502  0.00000000000E+00  0.00000000000E+00  0.18410524923E+03  0.18410524923E+03  0.00000000000E+00 0.  1.
         21   -1    0    0  501  503 -0.00000000000E+00 -0.00000000000E+00 -0.30099676168E+03  0.30099676168E+03  0.00000000000E+00 0.  1.
          6    2    1    2  501    0  0.12853978246E+02  0.80439108901E+02 -0.20150133009E+03  0.27694246634E+03  0.17163527795E+03 0.  0.
         24    2    3    3    0    0 -0.40062199068E+01  0.47903977352E+02 -0.23667492579E+02  0.95311618656E+02  0.78824574860E+02 0.  0.
         -6    2    1    2    0  502 -0.12853978246E+02 -0.80439108901E+02  0.84609817634E+02  0.20815954457E+03  0.17186011684E+03 0.  0.
        -24    2    5    5    0    0  0.30896243979E+02 -0.48498804246E+02  0.11146425366E+03  0.14751702038E+03  0.77654874630E+02 0.  0.
          5    1    3    3  501    0  0.16860198153E+02  0.32535131550E+02 -0.17783383751E+03  0.18163084768E+03  0.47000000000E+01 0. -1.
        -13    1    4    4    0    0  0.26800887604E+02  0.81175331414E+01 -0.33891792699E+02  0.43964025441E+02  0.00000000000E+00 0.  1.
         14    1    4    4    0    0 -0.30807107510E+02  0.39786444210E+02  0.10224300120E+02  0.51347593215E+02  0.00000000000E+00 0. -1.
         -5    1    5    5    0  502 -0.43750222225E+02 -0.31940304655E+02 -0.26854436022E+02  0.60642524191E+02  0.47000000000E+01 0.  1.
         11    1    6    6    0    0  0.48734285452E+02 -0.32303583594E+02  0.36856514133E+02  0.69115517256E+02  0.00000000000E+00 0. -1.
        -12    1    6    6    0    0 -0.17838041473E+02 -0.16195220651E+02  0.74607739524E+02  0.78401503126E+02  0.00000000000E+00 0.  1.
</event>
<event>
12    1  0.1596842E-001  0.2061258E+03  0.7818608E-02  0.1146555E+00
         21   -1    0    0  501  502  0.00000000000E+00  0.00000000000E+00  0.22667236785E+03  0.22667236785E+03  0.00000000000E+00 0.  1.
         21   -1    0    0  502  503 -0.00000000000E+00 -0.00000000000E+00 -0.23135484621E+03  0.23135484621E+03  0.00000000000E+00 0.  1.
         -6    2    1    2    0  503 -0.27037375545E+02  0.11197687804E+03 -0.11092298313E+03  0.22613308887E+03  0.15988253440E+03 0.  0.
        -24    2    3    3    0    0 -0.10033275791E+02  0.13756072139E+03 -0.68569628330E+02  0.17360148780E+03  0.80075364168E+02 0.  0.
          6    2    1    2  501    0  0.27037375545E+02 -0.11197687804E+03  0.10624050477E+03  0.23189412518E+03  0.17093273399E+03 0.  0.
         24    2    5    5    0    0  0.60081110334E+02 -0.13287261093E+03  0.99923299434E+02  0.19201283703E+03  0.74962612408E+02 0.  0.
          5    1    5    5  501    0 -0.33043734790E+02  0.20895732891E+02  0.63172053329E+01  0.39881288158E+02  0.47000000000E+01 0. -1.
        -13    1    6    6    0    0 -0.50949479967E+01 -0.75100318106E+02  0.33065645257E+02  0.82215285507E+02  0.00000000000E+00 0.  1.
         14    1    6    6    0    0  0.65176058331E+02 -0.57772292824E+02  0.66857654178E+02  0.10979755152E+03  0.00000000000E+00 0. -1.
         -5    1    3    3    0  503 -0.17004099754E+02 -0.25583843346E+02 -0.42353354795E+02  0.52531601072E+02  0.47000000000E+01 0.  1.
         11    1    4    4    0    0 -0.11387086645E+02 -0.66111739372E+01  0.15830487765E+01  0.13261953345E+02  0.00000000000E+00 0. -1.
        -12    1    4    4    0    0  0.13538108546E+01  0.14417189532E+03 -0.70152677107E+02  0.16033953446E+03  0.00000000000E+00 0.  1.
</event>
<event>
12    1  0.1596842E-001  0.1970077E+03  0.7818608E-02  0.1153258E+00
         21   -1    0    0  503  502  0.00000000000E+00  0.00000000000E+00  0.77432174814E+03  0.77432174814E+03  0.00000000000E+00 0.  1.
         21   -1    0    0  501  503 -0.00000000000E+00 -0.00000000000E+00 -0.11104568407E+03  0.11104568407E+03  0.00000000000E+00 0. -1.
          6    2    1    2  501    0  0.78912910676E+02  0.35930855727E+02  0.24125921883E+01  0.19702248066E+03  0.17690043363E+03 0.  0.
         24    2    3    3    0    0  0.10740074171E+03  0.32281975803E+02  0.45165643822E+02  0.14530416412E+03  0.80599748430E+02 0.  0.
         -6    2    1    2    0  502 -0.78912910676E+02 -0.35930855727E+02  0.66086347189E+03  0.68834495155E+03  0.17193013110E+03 0.  0.
        -24    2    5    5    0    0 -0.37992878109E+02 -0.71754491703E+02  0.26054428085E+03  0.28432103311E+03  0.79768174833E+02 0.  0.
          5    1    3    3  501    0 -0.28487831034E+02  0.36488799239E+01 -0.42753051634E+02  0.51718316540E+02  0.47000000000E+01 0. -1.
        -13    1    4    4    0    0 -0.41284340323E+01 -0.51579369650E+01  0.25105799578E+02  0.25960536469E+02  0.00000000000E+00 0.  1.
         14    1    4    4    0    0  0.11152917574E+03  0.37439912768E+02  0.20059844244E+02  0.11934362765E+03  0.00000000000E+00 0. -1.
         -5    1    5    5    0  502 -0.40920032566E+02  0.35823635976E+02  0.40031919103E+03  0.40402391844E+03  0.47000000000E+01 0.  1.
         13    1    6    6    0    0  0.22917436348E+02 -0.35118284628E+02  0.80818888067E+02  0.91050510555E+02  0.00000000000E+00 0. -1.
        -14    1    6    6    0    0 -0.60910314457E+02 -0.36636207075E+02  0.17972539279E+03  0.19327052255E+03  0.00000000000E+00 0.  1.
</event>
<event>
12    1  0.1596842E-001  0.2156053E+03  0.7818608E-02  0.1137350E+00
         21   -1    0    0  503  502  0.00000000000E+00  0.00000000000E+00  0.40908642415E+03  0.40908642415E+03  0.00000000000E+00 0.  1.
         21   -1    0    0  501  503 -0.00000000000E+00 -0.00000000000E+00 -0.22727772282E+03  0.22727772282E+03  0.00000000000E+00 0. -1.
          6    2    1    2  501    0 -0.28950030556E+01  0.13022387471E+03 -0.13457117814E+03  0.25350400746E+03  0.17084566493E+03 0.  0.
         24    2    3    3    0    0 -0.61248735860E+01  0.19549708854E+02 -0.63411204440E+01  0.84021734792E+02  0.81238764861E+02 0.  0.
         -6    2    1    2    0  502  0.28950030556E+01 -0.13022387471E+03  0.31637987947E+03  0.38286013952E+03  0.17181099998E+03 0.  0.
        -24    2    5    5    0    0 -0.33705377836E+02 -0.93435622238E+02  0.10463432935E+03  0.16479769114E+03  0.79647147637E+02 0.  0.
          5    1    3    3  501    0  0.32298705305E+01  0.11067416585E+03 -0.12823005770E+03  0.16948227266E+03  0.47000000000E+01 0. -1.
        -13    1    4    4    0    0 -0.33131987184E+02  0.25725200767E+02  0.19390187349E+02  0.46211404379E+02  0.00000000000E+00 0.  1.
         14    1    4    4    0    0  0.27007113597E+02 -0.61754919125E+01 -0.25731307793E+02  0.37810330413E+02  0.00000000000E+00 0. -1.
         -5    1    5    5    0  502  0.36600380891E+02 -0.36788252468E+02  0.21174555011E+03  0.21806244838E+03  0.47000000000E+01 0.  1.
         13    1    6    6    0    0 -0.13247720856E+02 -0.10177885070E+03  0.71941775278E+02  0.12533976060E+03  0.00000000000E+00 0. -1.
        -14    1    6    6    0    0 -0.20457656980E+02  0.83432284600E+01  0.32692554076E+02  0.39457930537E+02  0.00000000000E+00 0.  1.
</event>
<event>
12    1  0.1596842E-001  0.1855273E+03  0.7818608E-02  0.1163511E+00
         21   -1    0    0  501  502  0.00000000000E+00  0.00000000000E+00  0.45444717856E+03  0.45444717856E+03  0.00000000000E+00 0. -1.
         21   -1    0    0  502  503 -0.00000000000E+00 -0.00000000000E+00 -0.74866395952E+02  0.74866395952E+02  0.00000000000E+00 0. -1.
         -6    2    1    2    0  503  0.43313539527E+02 -0.44672684576E+02  0.16504397163E+03  0.24831411129E+03  0.17478178922E+03 0.  0.
        -24    2    3    3    0    0 -0.42361210067E+02 -0.29315293497E+02  0.74804598400E+02  0.12284998630E+03  0.82719602525E+02 0.  0.
          6    2    1    2  501    0 -0.43313539527E+02  0.44672684576E+02  0.21453681098E+03  0.28099946322E+03  0.17047857229E+03 0.  0.
         24    2    5    5    0    0  0.10558764905E+02  0.30076651886E+02  0.34550989832E+02  0.92499449508E+02  0.79663572327E+02 0.  0.
          5    1    5    5  501    0 -0.53872304431E+02  0.14596032690E+02  0.17998582115E+03  0.18850001372E+03  0.47000000000E+01 0. -1.
        -13    1    6    6    0    0  0.87151646221E+01  0.33395207203E+02  0.58677944593E+02  0.68075657471E+02  0.00000000000E+00 0.  1.
         14    1    6    6    0    0  0.18436002826E+01 -0.33185553170E+01 -0.24126954761E+02  0.24423792036E+02  0.00000000000E+00 0. -1.
         -5    1    3    3    0  503  0.85674749594E+02 -0.15357391079E+02  0.90239373229E+02  0.12546412499E+03  0.47000000000E+01 0.  1.
         13    1    4    4    0    0 -0.72642837630E+01 -0.35251522281E+01  0.78708578161E+02  0.79121658179E+02  0.00000000000E+00 0. -1.
        -14    1    4    4    0    0 -0.35096926304E+02 -0.25790141269E+02 -0.39039797610E+01  0.43728328125E+02  0.00000000000E+00 0.  1.
</event>
<event>
12    1  0.1596842E-001  0.2693830E+03  0.7818608E-02  0.1101788E+00
         21   -1    0    0  501  502  0.00000000000E+00  0.00000000000E+00  0.26830016389E+03  0.26830016389E+03  0.00000000000E+00 0.  1.
         21   -1    0    0  502  503 -0.00000000000E+00 -0.00000000000E+00 -0.46715230721E+03  0.46715230721E+03  0.00000000000E+00 0.  1.
         -6    2    1    2    0  503  0.14650132664E+03  0.14674502129E+03 -0.33856860801E+03  0.43199262358E+03  0.17027091509E+03 0.  0.
        -24    2    3    3    0    0  0.12806547643E+03  0.16806658929E+03 -0.33399246843E+03  0.40305267044E+03  0.79078072132E+02 0.  0.
          6    2    1    2  501    0 -0.14650132664E+03 -0.14674502129E+03  0.13971646469E+03  0.30345984751E+03  0.17196060179E+03 0.  0.
         24    2    5    5    0    0 -0.16367441792E+03 -0.81368163170E+02  0.81046343854E+02  0.21383104790E+03  0.75796531144E+02 0.  0.
          5    1    5    5  501    0  0.17173091284E+02 -0.65376858122E+02  0.58670120833E+02  0.89628799616E+02  0.47000000000E+01 0. -1.
        -13    1    6    6    0    0 -0.12066359559E+03 -0.91447234340E+02  0.75886189377E+02  0.16935469792E+03  0.00000000000E+00 0.  1.
         14    1    6    6    0    0 -0.43010822328E+02  0.10079071170E+02  0.51601544771E+01  0.44476349976E+02  0.00000000000E+00 0. -1.
         -5    1    3    3    0  503  0.18435850204E+02 -0.21321567998E+02 -0.45761395788E+01  0.28939953146E+02  0.47000000000E+01 0.  1.
         11    1    4    4    0    0  0.23821494866E+02  0.94833171576E+02 -0.13271197755E+03  0.16484314676E+03  0.00000000000E+00 0. -1.
        -12    1    4    4    0    0  0.10424398157E+03  0.73233417714E+02 -0.20128049088E+03  0.23820952368E+03  0.00000000000E+00 0.  1.
</event>
<event>
12    1  0.1596842E-001  0.2528316E+03  0.7818608E-02  0.1111745E+00
         21   -1    0    0  501  502  0.00000000000E+00  0.00000000000E+00  0.21065202578E+03  0.21065202578E+03  0.00000000000E+00 0.  1.
         21   -1    0    0  502  503 -0.00000000000E+00 -0.00000000000E+00 -0.82122627933E+03  0.82122627933E+03  0.00000000000E+00 0.  1.
         -6    2    1    2    0  503 -0.13761070782E+03 -0.12086707014E+03 -0.71592389202E+03  0.75925676305E+03  0.17429359577E+03 0.  0.
        -24    2    3    3    0    0 -0.32196670799E+02 -0.13634448067E+02 -0.39649404088E+03  0.40617253198E+03  0.80907833320E+02 0.  0.
          6    2    1    2  501    0  0.13761070782E+03  0.12086707014E+03  0.10534963847E+03  0.27262154206E+03  0.17227420967E+03 0.  0.
         24    2    5    5    0    0  0.16372669728E+03  0.12459820696E+03  0.10791593503E+03  0.24570236367E+03  0.79954098696E+02 0.  0.
          5    1    5    5  501    0 -0.26115989456E+02 -0.37311368207E+01 -0.25662965621E+01  0.26919178392E+02  0.47000000000E+01 0. -1.
        -11    1    6    6    0    0  0.13482322466E+02  0.22991427379E+01  0.36925754009E+02  0.39377282607E+02  0.00000000000E+00 0.  1.
         12    1    6    6    0    0  0.15024437481E+03  0.12229906422E+03  0.70990181022E+02  0.20632508106E+03  0.00000000000E+00 0. -1.
         -5    1    3    3    0  503 -0.10541403702E+03 -0.10723262207E+03 -0.31942985114E+03  0.35308423108E+03  0.47000000000E+01 0.  1.
         11    1    4    4    0    0  0.16700688596E+02 -0.19757834068E+02 -0.51047676861E+02  0.57228929045E+02  0.00000000000E+00 0. -1.
        -12    1    4    4    0    0 -0.48897359396E+02  0.61233860011E+01 -0.34544636402E+03  0.34894360293E+03  0.00000000000E+00 0.  1.
</event>
<event>
12    1  0.1596842E-001  0.2167040E+03  0.7818608E-02  0.1137730E+00
         21   -1    0    0  503  502  0.00000000000E+00  0.00000000000E+00  0.36898888109E+03  0.36898888109E+03  0.00000000000E+00 0. -1.
         21   -1    0    0  501  503 -0.00000000000E+00 -0.00000000000E+00 -0.14250031614E+03  0.14250031614E+03  0.00000000000E+00 0. -1.
          6    2    1    2  501    0  0.28480083896E+02 -0.11631451766E+03  0.20652653648E+02  0.21768594406E+03  0.18061133946E+03 0.  0.
         24    2    3    3    0    0 -0.84685238588E+01  0.87757890105E+01  0.28444961996E+02  0.86935821664E+02  0.81240327771E+02 0.  0.
         -6    2    1    2    0  502 -0.28480083896E+02  0.11631451766E+03  0.20583591130E+03  0.29380325318E+03  0.17208064098E+03 0.  0.
        -24    2    5    5    0    0  0.33529763245E+02  0.52371660773E+02  0.43661219163E+02  0.10871778411E+03  0.77757434684E+02 0.  0.
          5    1    3    3  501    0  0.36948607755E+02 -0.12509030667E+03 -0.77923083479E+01  0.13075012240E+03  0.47000000000E+01 0. -1.
        -11    1    4    4    0    0  0.29205595568E+02  0.20528808814E+02 -0.38980267228E+01  0.35910909431E+02  0.00000000000E+00 0.  1.
         12    1    4    4    0    0 -0.37674119427E+02 -0.11753019803E+02  0.32342988719E+02  0.51024912233E+02  0.00000000000E+00 0. -1.
         -5    1    5    5    0  502 -0.62009847142E+02  0.63942856883E+02  0.16217469214E+03  0.18508546907E+03  0.47000000000E+01 0.  1.
         11    1    6    6    0    0 -0.14635479139E+02  0.44072814048E+01  0.37463785749E+02  0.40461792121E+02  0.00000000000E+00 0. -1.
        -12    1    6    6    0    0  0.48165242384E+02  0.47964379368E+02  0.61974334138E+01  0.68255991994E+02  0.00000000000E+00 0.  1.
</event>
<event>
12    1  0.1596842E-001  0.1790908E+03  0.7818608E-02  0.1169140E+00
         21   -1    0    0  501  502  0.00000000000E+00  0.00000000000E+00  0.93890074828E+03  0.93890074828E+03  0.00000000000E+00 0. -1.
         21   -1    0    0  502  503 -0.00000000000E+00 -0.00000000000E+00 -0.41969128961E+02  0.41969128961E+02  0.00000000000E+00 0. -1.
         -6    2    1    2    0  503 -0.35125543897E+02  0.38543137163E+02  0.23407953939E+03  0.29473165386E+03  0.17133049865E+03 0.  0.
        -24    2    3    3    0    0 -0.48760767292E+02  0.77700237440E+02  0.21933494600E+03  0.25047455439E+03  0.78833651040E+02 0.  0.
          6    2    1    2  501    0  0.35125543897E+02 -0.38543137163E+02  0.66285207993E+03  0.68613822338E+03  0.16939127623E+03 0.  0.
         24    2    5    5    0    0  0.50400268437E+02  0.36053255021E+02  0.32934361113E+03  0.34401554407E+03  0.77713937720E+02 0.  0.
          5    1    5    5  501    0 -0.15274724539E+02 -0.74596392184E+02  0.33350846880E+03  0.34212267931E+03  0.47000000000E+01 0. -1.
        -13    1    6    6    0    0  0.23374227981E+02  0.55123071107E+02  0.26486282800E+03  0.27154599087E+03  0.00000000000E+00 0.  1.
         14    1    6    6    0    0  0.27026040456E+02 -0.19069816086E+02  0.64480783128E+02  0.72469553200E+02  0.00000000000E+00 0. -1.
         -5    1    3    3    0  503  0.13635223394E+02 -0.39157100277E+02  0.14744593393E+02  0.44257099469E+02  0.47000000000E+01 0.  1.
         11    1    4    4    0    0 -0.16009285213E+02  0.60032883662E+01 -0.32419171635E+00  0.17100929347E+02  0.00000000000E+00 0. -1.
        -12    1    4    4    0    0 -0.32751482078E+02  0.71696949074E+02  0.21965913771E+03  0.23337362504E+03  0.00000000000E+00 0.  1.
</event>
<event>
12    1  0.1596842E-001  0.2051108E+03  0.7818608E-02  0.1145700E+00
         21   -1    0    0  501  502  0.00000000000E+00  0.00000000000E+00  0.36583355626E+02  0.36583355626E+02  0.00000000000E+00 0. -1.
         21   -1    0    0  502  503 -0.00000000000E+00 -0.00000000000E+00 -0.11817731359E+04  0.11817731359E+04  0.00000000000E+00 0.  1.
         -6    2    1    2    0  503 -0.10514593782E+03 -0.38479730097E+02 -0.68222889517E+03  0.71239503794E+03  0.17185478408E+03 0.  0.
        -24    2    3    3    0    0 -0.10499538211E+03  0.20328939835E+02 -0.33706593046E+03  0.36222644350E+03  0.78468202700E+02 0.  0.
          6    2    1    2  501    0  0.10514593782E+03  0.38479730097E+02 -0.46296088509E+03  0.50596145357E+03  0.17066884164E+03 0.  0.
         24    2    5    5    0    0  0.37808584289E+02  0.12449542993E+02 -0.10735035433E+03  0.14306638691E+03  0.85787017206E+02 0.  0.
          5    1    5    5  501    0  0.67337353533E+02  0.26030187103E+02 -0.35561053076E+03  0.36289506666E+03  0.47000000000E+01 0. -1.
        -11    1    6    6    0    0  0.45806765517E+02  0.77323958355E+01 -0.11924627738E+03  0.12797548351E+03  0.00000000000E+00 0.  1.
         12    1    6    6    0    0 -0.79981812284E+01  0.47171471579E+01  0.11895923043E+02  0.15090903396E+02  0.00000000000E+00 0. -1.
         -5    1    3    3    0  503 -0.15055571344E+00 -0.58808669931E+02 -0.34516296471E+03  0.35016859444E+03  0.47000000000E+01 0.  1.
         11    1    4    4    0    0  0.88915106757E+01 -0.24367041234E+01 -0.51113966493E+01  0.10541483045E+02  0.00000000000E+00 0. -1.
        -12    1    4    4    0    0 -0.11388689278E+03  0.22765643958E+02 -0.33195453381E+03  0.35168496046E+03  0.00000000000E+00 0.  1.
</event>
<event>
12    1  0.1596842E-001  0.1857381E+03  0.7818608E-02  0.1162781E+00
         21   -1    0    0  501  502  0.00000000000E+00  0.00000000000E+00  0.97877181730E+02  0.97877181730E+02  0.00000000000E+00 0. -1.
         21   -1    0    0  502  503 -0.00000000000E+00 -0.00000000000E+00 -0.37343447703E+03  0.37343447703E+03  0.00000000000E+00 0. -1.
         -6    2    1    2    0  503 -0.58516121711E+02 -0.24624268892E+02 -0.19733958666E+03  0.26977589964E+03  0.17264307818E+03 0.  0.
        -24    2    3    3    0    0  0.20260218474E+02 -0.51048619298E+02 -0.13355598368E+03  0.16492173388E+03  0.79658894952E+02 0.  0.
          6    2    1    2  501    0  0.58516121711E+02  0.24624268892E+02 -0.78217708639E+02  0.20153575912E+03  0.17455131378E+03 0.  0.
         24    2    5    5    0    0  0.46240483689E+02 -0.16307151193E+02  0.18524122815E+02  0.95671957980E+02  0.80036709739E+02 0.  0.
          5    1    5    5  501    0  0.12275638022E+02  0.40931420085E+02 -0.96741831454E+02  0.10586380114E+03  0.47000000000E+01 0. -1.
        -11    1    6    6    0    0  0.84195042564E+01 -0.18571974644E+02 -0.28650256344E+02  0.35165942085E+02  0.00000000000E+00 0.  1.
         12    1    6    6    0    0  0.37820979432E+02  0.22648234509E+01  0.47174379160E+02  0.60506015896E+02  0.00000000000E+00 0. -1.
         -5    1    3    3    0  503 -0.78776340185E+02  0.26424350406E+02 -0.63783602982E+02  0.10485416576E+03  0.47000000000E+01 0.  1.
         13    1    4    4    0    0 -0.47297833406E+01  0.71111457954E+01 -0.84255138651E+02  0.84686879941E+02  0.00000000000E+00 0. -1.
        -14    1    4    4    0    0  0.24990001815E+02 -0.58159765094E+02 -0.49300845031E+02  0.80234853943E+02  0.00000000000E+00 0.  1.
</event>
<event>
12    1  0.1596842E-001  0.1991355E+03  0.7818608E-02  0.1151626E+00
         21   -1    0    0  501  502  0.00000000000E+00  0.00000000000E+00  0.90751535718E+03  0.90751535718E+03  0.00000000000E+00 0. -1.
         21   -1    0    0  502  503 -0.00000000000E+00 -0.00000000000E+00 -0.81742213312E+02  0.81742213312E+02  0.00000000000E+00 0.  1.
         -6    2    1    2    0  503  0.60721038142E+02 -0.64755043456E+02  0.73236945998E+02  0.21217589209E+03  0.17825458984E+03 0.  0.
        -24    2    3    3    0    0 -0.27697368145E+02 -0.41154813932E+02 -0.16309755771E+01  0.93845502565E+02  0.79645811932E+02 0.  0.
          6    2    1    2  501    0 -0.60721038142E+02  0.64755043456E+02  0.75253619787E+03  0.77708167840E+03  0.17223514647E+03 0.  0.
         24    2    5    5    0    0 -0.87276657970E+01  0.10163172431E+03  0.51760000847E+03  0.53360621054E+03  0.80128893841E+02 0.  0.
          5    1    5    5  501    0 -0.51993372345E+02 -0.36876680852E+02  0.23493618941E+03  0.24347546786E+03  0.47000000000E+01 0. -1.
        -13    1    6    6    0    0 -0.41618447053E+02  0.58248052326E+02  0.35461551754E+03  0.36176939618E+03  0.00000000000E+00 0.  1.
         14    1    6    6    0    0  0.32890781256E+02  0.43383671982E+02  0.16298449093E+03  0.17183681436E+03  0.00000000000E+00 0. -1.
         -5    1    3    3    0  503  0.88418406287E+02 -0.23600229524E+02  0.74867921576E+02  0.11833038952E+03  0.47000000000E+01 0.  1.
         11    1    4    4    0    0 -0.20144856297E+02 -0.20775468612E+02  0.38526269422E+02  0.48184113221E+02  0.00000000000E+00 0. -1.
        -12    1    4    4    0    0 -0.75525118479E+01 -0.20379345320E+02 -0.40157244999E+02  0.45661389344E+02  0.00000000000E+00 0.  1.
</event>
<event>
12    1  0.1596842E-001  0.2260908E+03  0.7818608E-02  0.1129601E+00
         21   -1    0    0  503  502  0.00000000000E+00  0.00000000000E+00  0.32087361125E+02  0.32087361125E+02  0.00000000000E+00 0.  1.
         21   -1    0    0  501  503 -0.00000000000E+00 -0.00000000000E+00 -0.15904401917E+04  0.15904401917E+04  0.00000000000E+00 0. -1.
          6    2    1    2  501    0 -0.14726813669E+03 -0.13117706019E+02 -0.81997498239E+03  0.85031069085E+03  0.16973308734E+03 0.  0.
         24    2    3    3    0    0 -0.77366849529E+02 -0.67876148608E+02 -0.58125288376E+03  0.59556570591E+03  0.79061964405E+02 0.  0.
         -6    2    1    2    0  502  0.14726813669E+03  0.13117706019E+02 -0.73837784819E+03  0.77221686198E+03  0.17104694365E+03 0.  0.
        -24    2    5    5    0    0  0.83331117724E+02  0.61010121221E+02 -0.58414075007E+03  0.59845611191E+03  0.79139066952E+02 0.  0.
          5    1    3    3  501    0 -0.69901287160E+02  0.54758442589E+02 -0.23872209863E+03  0.25474498495E+03  0.47000000000E+01 0. -1.
        -13    1    4    4    0    0 -0.20412308256E+02 -0.14081299976E+02 -0.30689283107E+02  0.39456018996E+02  0.00000000000E+00 0.  1.
         14    1    4    4    0    0 -0.56954541272E+02 -0.53794848632E+02 -0.55056360065E+03  0.55610968691E+03  0.00000000000E+00 0. -1.
         -5    1    5    5    0  502  0.63937018964E+02 -0.47892415202E+02 -0.15423709813E+03  0.17376075007E+03  0.47000000000E+01 0.  1.
         11    1    6    6    0    0 -0.57711577841E+00  0.83314317110E+01 -0.24494871869E+03  0.24509104554E+03  0.00000000000E+00 0. -1.
        -12    1    6    6    0    0  0.83908233502E+02  0.52678689510E+02 -0.33919203138E+03  0.35336506637E+03  0.00000000000E+00 0.  1.
</event>
<event>
12    1  0.1596842E-001  0.1754521E+03  0.7818608E-02  0.1173086E+00
         21   -1    0    0  503  502  0.00000000000E+00  0.00000000000E+00  0.59232725447E+03  0.59232725447E+03  0.00000000000E+00 0. -1.
         21   -1    0    0  501  503 -0.00000000000E+00 -0.00000000000E+00 -0.21691031788E+03  0.21691031788E+03  0.00000000000E+00 0. -1.
          6    2    1    2  501    0  0.24915502468E+02 -0.28097098418E+02 -0.16572122693E+03  0.24134410877E+03  0.17138618549E+03 0.  0.
         24    2    3    3    0    0  0.77080880680E+01 -0.64469371619E+02 -0.42444033365E+02  0.11158127194E+03  0.80207043211E+02 0.  0.
         -6    2    1    2    0  502 -0.24915502468E+02  0.28097098418E+02  0.54113816351E+03  0.56789346359E+03  0.16811378520E+03 0.  0.
        -24    2    5    5    0    0  0.22979196103E+02  0.99269963485E+01  0.14043538044E+03  0.16390229398E+03  0.80717266938E+02 0.  0.
          5    1    3    3  501    0  0.17207414400E+02  0.36372273201E+02 -0.12327719356E+03  0.12976283683E+03  0.47000000000E+01 0. -1.
        -11    1    4    4    0    0  0.42152170684E+02 -0.21022878758E+02 -0.25730311454E+02  0.53673232175E+02  0.00000000000E+00 0.  1.
         12    1    4    4    0    0 -0.34444082616E+02 -0.43446492861E+02 -0.16713721911E+02  0.57908039764E+02  0.00000000000E+00 0. -1.
         -5    1    5    5    0  502 -0.47894698571E+02  0.18170102070E+02  0.40070278307E+03  0.40399116961E+03  0.47000000000E+01 0.  1.
         11    1    6    6    0    0  0.19500092563E+02  0.96539353257E+01  0.15111162715E+03  0.15267015405E+03  0.00000000000E+00 0. -1.
        -12    1    6    6    0    0  0.34791035406E+01  0.27306102274E+00 -0.10676246706E+02  0.11232139934E+02  0.00000000000E+00 0.  1.
</event>
<event>
12    1  0.1596842E-001  0.2272274E+03  0.7818608E-02  0.1128882E+00
         21   -1    0    0  503  502  0.00000000000E+00  0.00000000000E+00  0.20300695131E+03  0.20300695131E+03  0.00000000000E+00 0. -1.
         21   -1    0    0  501  503 -0.00000000000E+00 -0.00000000000E+00 -0.44304346560E+03  0.44304346560E+03  0.00000000000E+00 0. -1.
          6    2    1    2  501    0 -0.43361818739E+02  0.14092734623E+03  0.91521367280E+02  0.24496621414E+03  0.17289164572E+03 0.  0.
         24    2    3    3    0    0  0.47194559535E+02  0.87684309918E+02  0.56151580052E+02  0.13402302863E+03  0.69952180853E+02 0.  0.
         -6    2    1    2    0  502  0.43361818739E+02 -0.14092734623E+03 -0.33155788157E+03  0.40108420277E+03  0.17087171983E+03 0.  0.
        -24    2    5    5    0    0  0.43038361007E+02 -0.15645427207E+03 -0.20472644645E+03  0.27321906684E+03  0.80034372875E+02 0.  0.
          5    1    3    3  501    0 -0.90556378274E+02  0.53243036308E+02  0.35369787228E+02  0.11094318550E+03  0.47000000000E+01 0. -1.
        -13    1    4    4    0    0  0.42533013596E+02  0.83460679335E+02  0.18038831789E+02  0.95394662811E+02  0.00000000000E+00 0.  1.
         14    1    4    4    0    0  0.46615459383E+01  0.42236305834E+01  0.38112748263E+02  0.38628365821E+02  0.00000000000E+00 0. -1.
         -5    1    5    5    0  502  0.32345773260E+00  0.15526925843E+02 -0.12683143512E+03  0.12786513593E+03  0.47000000000E+01 0.  1.
         11    1    6    6    0    0  0.42377503002E+02 -0.14506478147E+03 -0.21150391335E+03  0.25994912762E+03  0.00000000000E+00 0. -1.
        -12    1    6    6    0    0  0.66085800419E+00 -0.11389490598E+02  0.67774669033E+01  0.13269939224E+02  0.00000000000E+00 0.  1.
</event>
<event>
12    1  0.1596842E-001  0.1850184E+03  0.7818608E-02  0.1163212E+00
         21   -1    0    0  501  502  0.00000000000E+00  0.00000000000E+00  0.34296692510E+02  0.34296692510E+02  0.00000000000E+00 0.  1.
         21   -1    0    0  502  503 -0.00000000000E+00 -0.00000000000E+00 -0.99960061614E+03  0.99960061614E+03  0.00000000000E+00 0.  1.
         -6    2    1    2    0  503  0.30193588979E+02 -0.58253451423E+02 -0.52043657065E+03  0.55208949401E+03  0.17217278504E+03 0.  0.
        -24    2    3    3    0    0 -0.26094350227E+02 -0.87727918938E+02 -0.34032633675E+03  0.36104273876E+03  0.78439408803E+02 0.  0.
          6    2    1    2  501    0 -0.30193588979E+02  0.58253451423E+02 -0.44486735298E+03  0.48180781464E+03  0.17299332670E+03 0.  0.
         24    2    5    5    0    0 -0.29303552896E+02  0.91300623187E+02 -0.42470920432E+03  0.44280334459E+03  0.80637409100E+02 0.  0.
          5    1    5    5  501    0 -0.89003608242E+00 -0.33047171764E+02 -0.20158148662E+02  0.39004470043E+02  0.47000000000E+01 0. -1.
        -13    1    6    6    0    0 -0.49332887428E+02  0.76357683275E+02 -0.24419214668E+03  0.26056483661E+03  0.00000000000E+00 0.  1.
         14    1    6    6    0    0  0.20029334532E+02  0.14942939912E+02 -0.18051705763E+03  0.18223850798E+03  0.00000000000E+00 0. -1.
         -5    1    3    3    0  503  0.56287939206E+02  0.29474467514E+02 -0.18011023391E+03  0.19104675525E+03  0.47000000000E+01 0.  1.
         13    1    4    4    0    0  0.17475754237E+01 -0.13534888903E+02 -0.19531506723E+03  0.19579127336E+03  0.00000000000E+00 0. -1.
        -14    1    4    4    0    0 -0.27841925651E+02 -0.74193030035E+02 -0.14501126952E+03  0.16525146540E+03  0.00000000000E+00 0.  1.
</event>
<event>
12    1  0.1596842E-001  0.1967256E+03  0.7818608E-02  0.1152540E+00
         21   -1    0    0  503  502  0.00000000000E+00  0.00000000000E+00  0.96963829241E+03  0.96963829241E+03  0.00000000000E+00 0.  1.
         21   -1    0    0  501  503 -0.00000000000E+00 -0.00000000000E+00 -0.40311990774E+02  0.40311990774E+02  0.00000000000E+00 0. -1.
          6    2    1    2  501    0  0.95521787567E+02  0.49981252259E+01  0.41383625280E+03  0.45819767036E+03  0.17185827833E+03 0.  0.
         24    2    3    3    0    0  0.12572619821E+03 -0.19738131888E+02  0.36980429778E+03  0.39916300341E+03  0.79869981049E+02 0.  0.
         -6    2    1    2    0  502 -0.95521787567E+02 -0.49981252259E+01  0.51549004883E+03  0.55175261282E+03  0.17190567809E+03 0.  0.
        -24    2    5    5    0    0 -0.11911060434E+03  0.29216528632E+02  0.45742380839E+03  0.48019247662E+03  0.79418716313E+02 0.  0.
          5    1    3    3  501    0 -0.30204410639E+02  0.24736257114E+02  0.44031955024E+02  0.59034666945E+02  0.47000000000E+01 0. -1.
        -11    1    4    4    0    0  0.11794376761E+02 -0.14732048836E+02  0.15332450258E+03  0.15448153184E+03  0.00000000000E+00 0.  1.
         12    1    4    4    0    0  0.11393182144E+03 -0.50060830517E+01  0.21647979519E+03  0.24468147157E+03  0.00000000000E+00 0. -1.
         -5    1    5    5    0  502  0.23588816777E+02 -0.34214653858E+02  0.58066240439E+02  0.71560136209E+02  0.47000000000E+01 0.  1.
         13    1    6    6    0    0 -0.55740559684E+01  0.21593021047E-01 -0.20957588723E+01  0.59550626737E+01  0.00000000000E+00 0. -1.
        -14    1    6    6    0    0 -0.11353654838E+03  0.29194935611E+02  0.45951956727E+03  0.47423741394E+03  0.00000000000E+00 0.  1.
</event>
<event>
12    1  0.1596842E-001  0.1921489E+03  0.7818608E-02  0.1157098E+00
         21   -1    0    0  501  502  0.00000000000E+00  0.00000000000E+00  0.13943637600E+04  0.13943637600E+04  0.00000000000E+00 0.  1.
         21   -1    0    0  502  503 -0.00000000000E+00 -0.00000000000E+00 -0.48849537118E+02  0.48849537118E+02  0.00000000000E+00 0.  1.
         -6    2    1    2    0  503 -0.78019720651E+02  0.32861971803E+02  0.18305841735E+03  0.26538946404E+03  0.17249405051E+03 0.  0.
        -24    2    3    3    0    0 -0.38805219604E+02 -0.50034165926E+02  0.65419092960E+02  0.11615593099E+03  0.72133762921E+02 0.  0.
          6    2    1    2  501    0  0.78019720651E+02 -0.32861971803E+02  0.11624558056E+04  0.11778238331E+04  0.16970119606E+03 0.  0.
         24    2    5    5    0    0  0.65092923749E+01  0.11249115011E+02  0.87904762087E+03  0.88218584759E+03  0.73199975735E+02 0.  0.
          5    1    5    5  501    0  0.71510428276E+02 -0.44111086814E+02  0.28340818471E+03  0.29563798554E+03  0.47000000000E+01 0. -1.
        -13    1    6    6    0    0 -0.50401852863E+01 -0.12313320933E+02  0.76666096471E+03  0.76677640558E+03  0.00000000000E+00 0.  1.
         14    1    6    6    0    0  0.11549477661E+02  0.23562435944E+02  0.11238665616E+03  0.11540944201E+03  0.00000000000E+00 0. -1.
         -5    1    3    3    0  503 -0.39214501047E+02  0.82896137729E+02  0.11763932439E+03  0.14923353305E+03  0.47000000000E+01 0.  1.
         11    1    4    4    0    0 -0.62242361415E+01 -0.72795922132E+01  0.61519760307E+02  0.62260858382E+02  0.00000000000E+00 0. -1.
        -12    1    4    4    0    0 -0.32580983462E+02 -0.42754573713E+02  0.38993326534E+01  0.53895072612E+02  0.00000000000E+00 0.  1.
</event>
<event>
12    1  0.1596842E-001  0.1756431E+03  0.7818608E-02  0.1172720E+00
         21   -1    0    0  501  502  0.00000000000E+00  0.00000000000E+00  0.57013959025E+02  0.57013959025E+02  0.00000000000E+00 0. -1.
         21   -1    0    0  502  503 -0.00000000000E+00 -0.00000000000E+00 -0.53761973111E+03  0.53761973111E+03  0.00000000000E+00 0. -1.
         -6    2    1    2    0  503 -0.23790937629E+02  0.28427897169E+02 -0.26839883712E+03  0.32076226061E+03  0.17168674385E+03 0.  0.
        -24    2    3    3    0    0 -0.56218117562E+02  0.18420444903E+01 -0.58846274885E+02  0.10700376160E+03  0.69448189737E+02 0.  0.
          6    2    1    2  501    0  0.23790937629E+02 -0.28427897169E+02 -0.21220693496E+03  0.27387142952E+03  0.16911422948E+03 0.  0.
         24    2    5    5    0    0 -0.40679800644E+02  0.20661432082E+02 -0.11195600766E+03  0.14488082225E+03  0.79840867033E+02 0.  0.
          5    1    5    5  501    0  0.64470738273E+02 -0.49089329251E+02 -0.10025092730E+03  0.12899060727E+03  0.47000000000E+01 0. -1.
        -11    1    6    6    0    0 -0.87934472857E+01  0.48093174596E+02 -0.70742066103E+02  0.85992546621E+02  0.00000000000E+00 0.  1.
         12    1    6    6    0    0 -0.31886353359E+02 -0.27431742514E+02 -0.41213941562E+02  0.58888275633E+02  0.00000000000E+00 0. -1.
         -5    1    3    3    0  503  0.32427179934E+02  0.26585852678E+02 -0.20955256224E+03  0.21375849902E+03  0.47000000000E+01 0.  1.
         13    1    4    4    0    0 -0.51663417232E+02  0.29770462724E+02 -0.48545365031E+02  0.76889801645E+02  0.00000000000E+00 0. -1.
        -14    1    4    4    0    0 -0.45547003302E+01 -0.27928418234E+02 -0.10300909854E+02  0.30113959952E+02  0.00000000000E+00 0.  1.
</event>
<event>
12    1  0.1596842E-001  0.1748470E+03  0.7818608E-02  0.1172892E+00
         21   -1    0    0  503  502  0.00000000000E+00  0.00000000000E+00  0.90914967340E+02  0.90914967340E+02  0.00000000000E+00 0.  1.
         21   -1    0    0  501  503 -0.00000000000E+00 -0.00000000000E+00 -0.46133666160E+03  0.46133666160E+03  0.00000000000E+00 0.  1.
          6    2    1    2  501    0  0.23365265183E+02 -0.21200709221E+02 -0.32902081751E+03  0.37259382055E+03  0.17197689110E+03 0.  0.
         24    2    3    3    0    0  0.63622068980E+01 -0.77512565375E+02 -0.25274082596E+03  0.27615287362E+03  0.79585231269E+02 0.  0.
         -6    2    1    2    0  502 -0.23365265183E+02  0.21200709221E+02 -0.41400876749E+02  0.17965780838E+03  0.17195199862E+03 0.  0.
        -24    2    5    5    0    0 -0.38909153834E+02 -0.33367286926E+02 -0.62573346703E+02  0.11891538365E+03  0.87167348606E+02 0.  0.
          5    1    3    3  501    0  0.17003058285E+02  0.56311856154E+02 -0.76279991551E+02  0.96440946934E+02  0.47000000000E+01 0. -1.
        -11    1    4    4    0    0  0.32355353476E+02 -0.46311781516E+02 -0.20885412276E+03  0.21636010399E+03  0.00000000000E+00 0.  1.
         12    1    4    4    0    0 -0.25993146578E+02 -0.31200783859E+02 -0.43886703201E+02  0.59792769632E+02  0.00000000000E+00 0. -1.
         -5    1    5    5    0  502  0.15543888651E+02  0.54567996147E+02  0.21172469953E+02  0.60742424728E+02  0.47000000000E+01 0.  1.
         13    1    6    6    0    0  0.82148406266E+01 -0.36879864900E+02  0.32087944818E+01  0.37919709962E+02  0.00000000000E+00 0. -1.
        -14    1    6    6    0    0 -0.47123994460E+02  0.35125779742E+01 -0.65782141184E+02  0.80995673691E+02  0.00000000000E+00 0.  1.
</event>
<event>
12    1  0.1596842E-001  0.1739238E+03  0.7818608E-02  0.1173874E+00
         21   -1    0    0  501  502  0.00000000000E+00  0.00000000000E+00  0.28522225087E+03  0.28522225087E+03  0.00000000000E+00 0.  1.
         21   -1    0    0  502  503 -0.00000000000E+00 -0.00000000000E+00 -0.17620972957E+03  0.17620972957E+03  0.00000000000E+00 0.  1.
         -6    2    1    2    0  503  0.27836543739E+02 -0.94720995827E+01 -0.91233283414E+02  0.19620024643E+03  0.17119121140E+03 0.  0.
        -24    2    3    3    0    0  0.57064286820E+02 -0.17686074833E+01  0.15689645867E+01  0.98486624094E+02  0.80235233364E+02 0.  0.
          6    2    1    2  501    0 -0.27836543739E+02  0.94720995827E+01  0.20024580471E+03  0.26523173401E+03  0.17142023389E+03 0.  0.
         24    2    5    5    0    0  0.15942557566E+02 -0.32455710016E+02  0.45454638168E+02  0.98927957242E+02  0.80081697901E+02 0.  0.
          5    1    5    5  501    0 -0.43779101305E+02  0.41927809599E+02  0.15479116654E+03  0.16630377677E+03  0.47000000000E+01 0. -1.
        -11    1    6    6    0    0 -0.13114535898E+02  0.44418587223E+01  0.49869029180E+02  0.51755591312E+02  0.00000000000E+00 0.  1.
         12    1    6    6    0    0  0.29057093464E+02 -0.36897568738E+02 -0.44143910117E+01  0.47172365930E+02  0.00000000000E+00 0. -1.
         -5    1    3    3    0  503 -0.29227743080E+02 -0.77034920994E+01 -0.92802248000E+02  0.97713622336E+02  0.47000000000E+01 0.  1.
         11    1    4    4    0    0  0.14857830234E+02 -0.31959181342E+02  0.23276308236E+02  0.42236606355E+02  0.00000000000E+00 0. -1.
        -12    1    4    4    0    0  0.42206456586E+02  0.30190573858E+02 -0.21707343649E+02  0.56250017740E+02  0.00000000000E+00 0.  1.
</event>
<event>
12    1  0.1596842E-001  0.1782928E+03  0.7818608E-02  0.1170620E+00
         21   -1    0    0  503  502  0.00000000000E+00  0.00000000000E+00  0.53627735559E+03  0.53627735559E+03  0.00000000000E+00 0. -1.
         21   -1    0    0  501  503 -0.00000000000E+00 -0.00000000000E+00 -0.40866013292E+03  0.40866013292E+03  0.00000000000E+00 0. -1.
          6    2    1    2  501    0 -0.14791793098E+02  0.20575357554E+02 -0.37412461944E+03  0.41245912042E+03  0.17178810396E+03 0.  0.
         24    2    3    3    0    0  0.38812504652E+02  0.32741392878E+02 -0.12490304748E+03  0.15720451207E+03  0.80833644112E+02 0.  0.
         -6    2    1    2    0  502  0.14791793098E+02 -0.20575357554E+02  0.50174184211E+03  0.53247836808E+03  0.17648284298E+03 0.  0.
        -24    2    5    5    0    0  0.11972728286E+02 -0.56871446996E+02  0.16063590685E+03  0.18940300857E+03  0.81804018103E+02 0.  0.
          5    1    3    3  501    0 -0.53604297750E+02 -0.12166035324E+02 -0.24922157196E+03  0.25525460835E+03  0.47000000000E+01 0. -1.
        -11    1    4    4    0    0 -0.13427239709E+02  0.25305103529E+02 -0.92837726268E+01  0.30113576091E+02  0.00000000000E+00 0.  1.
         12    1    4    4    0    0  0.52239744362E+02  0.74362893488E+01 -0.11561927486E+03  0.12709093598E+03  0.00000000000E+00 0. -1.
         -5    1    5    5    0  502  0.28190648123E+01  0.36296089443E+02  0.34110593526E+03  0.34307535951E+03  0.47000000000E+01 0.  1.
         13    1    6    6    0    0 -0.21144745804E+02 -0.31952365758E+02  0.13576454763E+03  0.14106759495E+03  0.00000000000E+00 0. -1.
        -14    1    6    6    0    0  0.33117474089E+02 -0.24919081239E+02  0.24871359226E+02  0.48335413617E+02  0.00000000000E+00 0.  1.
</event>
<event>
12    1  0.1596842E-001  0.3295361E+03  0.7818608E-02  0.1071405E+00
         21   -1    0    0  501  502  0.00000000000E+00  0.00000000000E+00  0.84396380536E+03  0.84396380536E+03  0.00000000000E+00 0.  1.
         21   -1    0    0  502  503 -0.00000000000E+00 -0.00000000000E+00 -0.13014787981E+03  0.13014787981E+03  0.00000000000E+00 0. -1.
         -6    2    1    2    0  503  0.23994748540E+03  0.14582056620E+03  0.41220157185E+03  0.52738437668E+03  0.17142261126E+03 0.  0.
        -24    2    3    3    0    0  0.10110204516E+03  0.46768707212E+02  0.27961178291E+03  0.31130228771E+03  0.79482260139E+02 0.  0.
          6    2    1    2  501    0 -0.23994748540E+03 -0.14582056620E+03  0.30161435369E+03  0.44672730849E+03  0.17249822180E+03 0.  0.
         24    2    5    5    0    0 -0.18632303485E+03 -0.17505120602E+03  0.25444136952E+03  0.36941371048E+03  0.79792737313E+02 0.  0.
          5    1    5    5  501    0 -0.53624450552E+02  0.29230639820E+02  0.47172984175E+02  0.77313598010E+02  0.47000000000E+01 0. -1.
        -11    1    6    6    0    0 -0.28327063282E+02 -0.75302425614E+02  0.87274525225E+02  0.11870012877E+03  0.00000000000E+00 0.  1.
         12    1    6    6    0    0 -0.15799597157E+03 -0.99748780402E+02  0.16716684429E+03  0.25071358171E+03  0.00000000000E+00 0. -1.
         -5    1    3    3    0  503  0.13884544024E+03  0.99051858984E+02  0.13258978893E+03  0.21608208897E+03  0.47000000000E+01 0.  1.
         11    1    4    4    0    0  0.17428141143E+02 -0.21009118211E+02  0.79536979764E+02  0.84090750393E+02  0.00000000000E+00 0. -1.
        -12    1    4    4    0    0  0.83673904015E+02  0.67777825423E+02  0.20007480315E+03  0.22721153731E+03  0.00000000000E+00 0.  1.
</event>
<event>
12    1  0.1596842E-001  0.1912430E+03  0.7818608E-02  0.1161900E+00
         21   -1    0    0  503  502  0.00000000000E+00  0.00000000000E+00  0.82757082137E+03  0.82757082137E+03  0.00000000000E+00 0. -1.
         21   -1    0    0  501  503 -0.00000000000E+00 -0.00000000000E+00 -0.39871412665E+02  0.39871412665E+02  0.00000000000E+00 0. -1.
          6    2    1    2  501    0  0.77150483091E+01 -0.28040962307E+02  0.38104543747E+03  0.41806338126E+03  0.16951562701E+03 0.  0.
         24    2    3    3    0    0  0.25333464858E+02 -0.59940946003E+02  0.13256121396E+03  0.16687716171E+03  0.77722649233E+02 0.  0.
         -6    2    1    2    0  502 -0.77150483091E+01  0.28040962307E+02  0.40665397123E+03  0.44937885277E+03  0.18901873838E+03 0.  0.
        -24    2    5    5    0    0  0.20877727490E+02  0.52267847574E+02  0.98537897929E+02  0.13895640927E+03  0.80195753967E+02 0.  0.
          5    1    3    3  501    0 -0.17618416549E+02  0.31899983697E+02  0.24848422351E+03  0.25118621956E+03  0.47000000000E+01 0. -1.
        -13    1    4    4    0    0 -0.10698501857E+02  0.14133032103E+02  0.14399319605E+02  0.22837270930E+02  0.00000000000E+00 0.  1.
         14    1    4    4    0    0  0.36031966716E+02 -0.74073978107E+02  0.11816189435E+03  0.14403989078E+03  0.00000000000E+00 0. -1.
         -5    1    5    5    0  502 -0.28592775799E+02 -0.24226885268E+02  0.30811607330E+03  0.31042244349E+03  0.47000000000E+01 0.  1.
         11    1    6    6    0    0  0.20309762753E+02  0.69764803395E+02  0.97258452585E+02  0.12140354548E+03  0.00000000000E+00 0. -1.
        -12    1    6    6    0    0  0.56796473654E+00 -0.17496955820E+02  0.12794453436E+01  0.17552863792E+02  0.00000000000E+00 0.  1.
</event>
<event>
12    1  0.1596842E-001  0.1739578E+03  0.7818608E-02  0.1174388E+00
         21   -1    0    0  503  502  0.00000000000E+00  0.00000000000E+00  0.10818625795E+04  0.10818625795E+04  0.00000000000E+00 0.  1.
         21   -1    0    0  501  503 -0.00000000000E+00 -0.00000000000E+00 -0.28039064277E+02  0.28039064277E+02  0.00000000000E+00 0.  1.
          6    2    1    2  501    0 -0.61929268464E+01  0.84223458728E+01  0.60065077847E+03  0.62533405890E+03  0.17364342573E+03 0.  0.
         24    2    3    3    0    0 -0.62277484778E+01  0.54789168523E+02  0.54055250017E+03  0.54928291486E+03  0.80461651019E+02 0.  0.
         -6    2    1    2    0  502  0.61929268464E+01 -0.84223458728E+01  0.45317273674E+03  0.48456758486E+03  0.17126274177E+03 0.  0.
        -24    2    5    5    0    0 -0.23580122771E+02  0.35744226937E+02  0.14355242234E+03  0.17036390931E+03  0.81135021335E+02 0.  0.
          5    1    3    3  501    0  0.34821631393E-01 -0.46366822650E+02  0.60098278298E+02  0.76051144039E+02  0.47000000000E+01 0. -1.
        -11    1    4    4    0    0  0.24966822974E+02 -0.51534047200E+01  0.84830636614E+02  0.88578421402E+02  0.00000000000E+00 0.  1.
         12    1    4    4    0    0 -0.31194571452E+02  0.59942573243E+02  0.45572186355E+03  0.46070449346E+03  0.00000000000E+00 0. -1.
         -5    1    5    5    0  502  0.29773049618E+02 -0.44166572810E+02  0.30962031440E+03  0.31420367555E+03  0.47000000000E+01 0.  1.
         13    1    6    6    0    0  0.23497577777E+02  0.11310262848E+02  0.12367594048E+02  0.28862009452E+02  0.00000000000E+00 0. -1.
        -14    1    6    6    0    0 -0.47077700548E+02  0.24433964089E+02  0.13118482829E+03  0.14150189986E+03  0.00000000000E+00 0.  1.
</event>
<event>
12    1  0.1596842E-001  0.1910125E+03  0.7818608E-02  0.1157841E+00
         21   -1    0    0  501  502  0.00000000000E+00  0.00000000000E+00  0.13323904307E+03  0.13323904307E+03  0.00000000000E+00 0. -1.
         21   -1    0    0  502  503 -0.00000000000E+00 -0.00000000000E+00 -0.31133087945E+03  0.31133087945E+03  0.00000000000E+00 0.  1.
         -6    2    1    2    0  503 -0.79695148495E+02 -0.93263303251E+01 -0.97649190410E+01  0.18997277243E+03  0.17191859553E+03 0.  0.
        -24    2    3    3    0    0 -0.75199215984E+02 -0.15748499292E+02  0.55985703383E+02  0.12358985284E+03  0.78975410276E+02 0.  0.
          6    2    1    2  501    0  0.79695148495E+02  0.93263303251E+01 -0.16832691734E+03  0.25459715009E+03  0.17334203356E+03 0.  0.
         24    2    5    5    0    0  0.86206781150E+02  0.40952128190E+02 -0.74345168461E+02  0.15511221870E+03  0.97076827296E+02 0.  0.
          5    1    5    5  501    0 -0.65116326549E+01 -0.31625797865E+02 -0.93981748876E+02  0.99484931383E+02  0.47000000000E+01 0. -1.
        -11    1    6    6    0    0  0.30750778560E+02 -0.19959190988E+02 -0.61704588655E+02  0.71773504499E+02  0.00000000000E+00 0.  1.
         12    1    6    6    0    0  0.55456002589E+02  0.60911319178E+02 -0.12640579806E+02  0.83338714203E+02  0.00000000000E+00 0. -1.
         -5    1    3    3    0  503 -0.44959325111E+01  0.64221689671E+01 -0.65750622424E+02  0.66382919584E+02  0.47000000000E+01 0.  1.
         13    1    4    4    0    0 -0.64626091763E+02 -0.31335071429E+02  0.82763564881E+01  0.72297417068E+02  0.00000000000E+00 0. -1.
        -14    1    4    4    0    0 -0.10573124221E+02  0.15586572137E+02  0.47709346895E+02  0.51292435776E+02  0.00000000000E+00 0.  1.
</event>
<event>
12    1  0.1596842E-001  0.1872326E+03  0.7818608E-02  0.1162004E+00
         21   -1    0    0  503  502  0.00000000000E+00  0.00000000000E+00  0.94683144864E+02  0.94683144864E+02  0.00000000000E+00 0.  1.
         21   -1    0    0  501  503 -0.00000000000E+00 -0.00000000000E+00 -0.56657165298E+03  0.56657165298E+03  0.00000000000E+00 0.  1.
          6    2    1    2  501    0  0.61271435669E+02 -0.14009790676E+02 -0.43300789357E+03  0.47002782824E+03  0.17169700162E+03 0.  0.
         24    2    3    3    0    0 -0.29199861988E+02  0.15573265674E+02 -0.23852891070E+03  0.25345364303E+03  0.79041440908E+02 0.  0.
         -6    2    1    2    0  502 -0.61271435669E+02  0.14009790676E+02 -0.38880614541E+02  0.19122696960E+03  0.17636776534E+03 0.  0.
        -24    2    5    5    0    0 -0.23876831805E+02  0.97288252112E+01 -0.93284848354E+02  0.12490507487E+03  0.78958607251E+02 0.  0.
          5    1    3    3  501    0  0.90471297656E+02 -0.29583056350E+02 -0.19447898287E+03  0.21657418521E+03  0.47000000000E+01 0. -1.
        -13    1    4    4    0    0  0.43068589045E+01  0.41493889185E+02 -0.14283465763E+03  0.14880198686E+03  0.00000000000E+00 0.  1.
         14    1    4    4    0    0 -0.33506720892E+02 -0.25920623510E+02 -0.95694253072E+02  0.10465165617E+03  0.00000000000E+00 0. -1.
         -5    1    5    5    0  502 -0.37394603864E+02  0.42809654646E+01  0.54404233813E+02  0.66321894727E+02  0.47000000000E+01 0.  1.
         11    1    6    6    0    0 -0.18615193983E+02 -0.30733795917E+02 -0.67980472956E+02  0.76892368684E+02  0.00000000000E+00 0. -1.
        -12    1    6    6    0    0 -0.52616378216E+01  0.40462621128E+02 -0.25304375397E+02  0.48012706187E+02  0.00000000000E+00 0.  1.
</event>
<event>
12    1  0.1596842E-001  0.1782378E+03  0.7818608E-02  0.1169652E+00
         21   -1    0    0  501  502  0.00000000000E+00  0.00000000000E+00  0.16999550311E+03  0.16999550311E+03  0.00000000000E+00 0.  1.
         21   -1    0    0  502  503 -0.00000000000E+00 -0.00000000000E+00 -0.19819060316E+03  0.19819060316E+03  0.00000000000E+00 0.  1.
         -6    2    1    2    0  503 -0.39260748320E+02  0.20524240631E+02  0.30945666067E+02  0.18090429256E+03  0.17264436859E+03 0.  0.
        -24    2    3    3    0    0 -0.59413817582E+02  0.13166424706E+02 -0.40049705491E+02  0.10658931131E+03  0.77807107105E+02 0.  0.
          6    2    1    2  501    0  0.39260748320E+02 -0.20524240631E+02 -0.59140766119E+02  0.18728181371E+03  0.17208775877E+03 0.  0.
         24    2    5    5    0    0 -0.13576554181E+01 -0.21058790268E+02 -0.97956897316E+02  0.13089987949E+03  0.84225345606E+02 0.  0.
          5    1    5    5  501    0  0.40618403738E+02  0.53454963738E+00  0.38816131197E+02  0.56381934222E+02  0.47000000000E+01 0. -1.
        -13    1    6    6    0    0  0.27267330069E+02 -0.55387197427E+01 -0.15994575466E+00  0.27824634555E+02  0.00000000000E+00 0.  1.
         14    1    6    6    0    0 -0.28624985487E+02 -0.15520070525E+02 -0.97796951561E+02  0.10307524493E+03  0.00000000000E+00 0. -1.
         -5    1    3    3    0  503  0.20153069262E+02  0.73578159246E+01  0.70995371559E+02  0.74314981253E+02  0.47000000000E+01 0.  1.
         13    1    4    4    0    0  0.15189629630E+02 -0.55198602867E+01  0.56588308879E+01  0.17123553162E+02  0.00000000000E+00 0. -1.
        -14    1    4    4    0    0 -0.74603447212E+02  0.18686284993E+02 -0.45708536379E+02  0.89465758146E+02  0.00000000000E+00 0.  1.
</event>
<event>
12    1  0.1596842E-001  0.1871104E+03  0.7818608E-02  0.1161338E+00
         21   -1    0    0  503  502  0.00000000000E+00  0.00000000000E+00  0.50143859827E+03  0.50143859827E+03  0.00000000000E+00 0. -1.
         21   -1    0    0  501  503 -0.00000000000E+00 -0.00000000000E+00 -0.72753808909E+02  0.72753808909E+02  0.00000000000E+00 0. -1.
          6    2    1    2  501    0 -0.45033717612E+02  0.56196155565E+02  0.15235512752E+03  0.24047336468E+03  0.17154973220E+03 0.  0.
         24    2    3    3    0    0 -0.54307124685E+02  0.32941477704E+02  0.17741984597E+03  0.20473674156E+03  0.80030786922E+02 0.  0.
         -6    2    1    2    0  502  0.45033717612E+02 -0.56196155565E+02  0.27632966185E+03  0.33371904251E+03  0.17269705756E+03 0.  0.
        -24    2    5    5    0    0  0.50001825971E+02  0.26679529019E+02  0.12222302561E+03  0.15860763074E+03  0.83701449640E+02 0.  0.
          5    1    3    3  501    0  0.92734070730E+01  0.23254677861E+02 -0.25064718450E+02  0.35736623122E+02  0.47000000000E+01 0. -1.
        -13    1    4    4    0    0 -0.63281322279E+02 -0.42888344226E+01  0.11973385396E+03  0.13549581409E+03  0.00000000000E+00 0.  1.
         14    1    4    4    0    0  0.89741975932E+01  0.37230312126E+02  0.57685992002E+02  0.69240927468E+02  0.00000000000E+00 0. -1.
         -5    1    5    5    0  502 -0.49681083590E+01 -0.82875684584E+02  0.15410663624E+03  0.17511141176E+03  0.47000000000E+01 0.  1.
         11    1    6    6    0    0  0.66725162342E+02  0.10653442105E+02  0.11661334645E+03  0.13477542687E+03  0.00000000000E+00 0. -1.
        -12    1    6    6    0    0 -0.16723336371E+02  0.16026086914E+02  0.56096791607E+01  0.23832203873E+02  0.00000000000E+00 0.  1.
</event>
<event>
12    1  0.1596842E-001  0.2141727E+03  0.7818608E-02  0.1139020E+00
         21   -1    0    0  503  502  0.00000000000E+00  0.00000000000E+00  0.10517862521E+03  0.10517862521E+03  0.00000000000E+00 0.  1.
         21   -1    0    0  501  503 -0.00000000000E+00 -0.00000000000E+00 -0.52011560276E+03  0.52011560276E+03  0.00000000000E+00 0.  1.
          6    2    1    2  501    0  0.89617178026E+02  0.83306093312E+02 -0.34005334755E+03  0.40187835380E+03  0.17578051169E+03 0.  0.
         24    2    3    3    0    0 -0.16818013984E+00  0.30501329848E+02 -0.24895062206E+03  0.26341698670E+03  0.80509237072E+02 0.  0.
         -6    2    1    2    0  502 -0.89617178026E+02 -0.83306093312E+02 -0.74883630000E+02  0.22341587417E+03  0.17127740951E+03 0.  0.
        -24    2    5    5    0    0 -0.74438230296E+02  0.91036129948E+01 -0.74055699088E+02  0.12964631758E+03  0.75498312528E+02 0.  0.
          5    1    3    3  501    0  0.89785358166E+02  0.52804763465E+02 -0.91102725496E+02  0.13846136710E+03  0.47000000000E+01 0. -1.
        -11    1    4    4    0    0  0.30395639552E+02  0.42984606023E+02 -0.16556034954E+03  0.17372910118E+03  0.00000000000E+00 0.  1.
         12    1    4    4    0    0 -0.30563819691E+02 -0.12483276175E+02 -0.83390272518E+02  0.89687885519E+02  0.00000000000E+00 0. -1.
         -5    1    5    5    0  502 -0.15178947730E+02 -0.92409706307E+02 -0.82793091237E+00  0.93769556593E+02  0.47000000000E+01 0.  1.
         11    1    6    6    0    0 -0.84286437542E+02 -0.86452978676E+01 -0.50851866971E+02  0.98817291519E+02  0.00000000000E+00 0. -1.
        -12    1    6    6    0    0  0.98482072456E+01  0.17748910862E+02 -0.23203832117E+02  0.30829026058E+02  0.00000000000E+00 0.  1.
</event>
<event>
12    1  0.1596842E-001  0.3091575E+03  0.7818608E-02  0.1080917E+00
         21   -1    0    0  503  502  0.00000000000E+00  0.00000000000E+00  0.27695572109E+03  0.27695572109E+03  0.00000000000E+00 0.  1.
         21   -1    0    0  501  503 -0.00000000000E+00 -0.00000000000E+00 -0.34615645533E+03  0.34615645533E+03  0.00000000000E+00 0.  1.
          6    2    1    2  501    0 -0.25054218358E+03 -0.47069000840E+02 -0.61493434378E+02  0.31385861451E+03  0.17244973423E+03 0.  0.
         24    2    3    3    0    0 -0.40425954113E+02 -0.27074105198E+02 -0.39935774612E+02  0.10164304385E+03  0.79807125812E+02 0.  0.
         -6    2    1    2    0  502  0.25054218358E+03  0.47069000840E+02 -0.77072998584E+01  0.30925356192E+03  0.17490422092E+03 0.  0.
        -24    2    5    5    0    0  0.11537205418E+03  0.38671154999E+02  0.60621930746E+02  0.15748906854E+03  0.79508610270E+02 0.  0.
          5    1    3    3  501    0 -0.21011622946E+03 -0.19994895642E+02 -0.21557659766E+02  0.21221557066E+03  0.47000000000E+01 0. -1.
        -13    1    4    4    0    0 -0.41796541660E+02 -0.50402297810E+02 -0.42611055233E+02  0.78121985045E+02  0.00000000000E+00 0.  1.
         14    1    4    4    0    0  0.13705875471E+01  0.23328192612E+02  0.26752806214E+01  0.23521058802E+02  0.00000000000E+00 0. -1.
         -5    1    5    5    0  502  0.13517012939E+03  0.83978458413E+01 -0.68329230605E+02  0.15176449338E+03  0.47000000000E+01 0.  1.
         13    1    6    6    0    0  0.24146547413E+02 -0.14527753073E+02 -0.10605350537E+02  0.30109547013E+02  0.00000000000E+00 0. -1.
        -14    1    6    6    0    0  0.91225506770E+02  0.53198908072E+02  0.71227281284E+02  0.12737952153E+03  0.00000000000E+00 0.  1.
</event>
<event>
12    1  0.1596842E-001  0.2051465E+03  0.7818608E-02  0.1146714E+00
         21   -1    0    0  501  502  0.00000000000E+00  0.00000000000E+00  0.26778110189E+03  0.26778110189E+03  0.00000000000E+00 0. -1.
         21   -1    0    0  502  503 -0.00000000000E+00 -0.00000000000E+00 -0.21810794207E+03  0.21810794207E+03  0.00000000000E+00 0. -1.
         -6    2    1    2    0  503  0.10604562112E+03 -0.66780527554E+01 -0.10804465153E+03  0.23185926581E+03  0.17548447872E+03 0.  0.
        -24    2    3    3    0    0  0.44767285088E+02  0.49602397174E+02 -0.13051760165E+02  0.10549367350E+03  0.80585725071E+02 0.  0.
          6    2    1    2  501    0 -0.10604562112E+03  0.66780527554E+01  0.15771781135E+03  0.25402977814E+03  0.16842194043E+03 0.  0.
         24    2    5    5    0    0 -0.13228180928E+03 -0.24722242826E+02  0.12794975389E+03  0.20321104756E+03  0.82546495828E+02 0.  0.
          5    1    5    5  501    0  0.26236188168E+02  0.31400295581E+02  0.29768057460E+02  0.50818730574E+02  0.47000000000E+01 0. -1.
        -11    1    6    6    0    0 -0.17298584905E+02  0.22629114605E+02  0.46594423404E+02  0.54610971058E+02  0.00000000000E+00 0.  1.
         12    1    6    6    0    0 -0.11498322438E+03 -0.47351357431E+02  0.81355330489E+02  0.14860007651E+03  0.00000000000E+00 0. -1.
         -5    1    3    3    0  503  0.61278336027E+02 -0.56280449930E+02 -0.94992891369E+02  0.12636559232E+03  0.47000000000E+01 0.  1.
         11    1    4    4    0    0  0.55939846875E+02  0.64757810015E+02 -0.76998467065E+01  0.85919311366E+02  0.00000000000E+00 0. -1.
        -12    1    4    4    0    0 -0.11172561786E+02 -0.15155412841E+02 -0.53519134589E+01  0.19574362133E+02  0.00000000000E+00 0.  1.
</event>
<event>
12    1  0.1596842E-001  0.1964202E+03  0.7818608E-02  0.1153084E+00
         21   -1    0    0  503  502  0.00000000000E+00  0.00000000000E+00  0.11379545874E+03  0.11379545874E+03  0.00000000000E+00 0.  1.
         21   -1    0    0  501  503 -0.00000000000E+00 -0.00000000000E+00 -0.51025693714E+03  0.51025693714E+03  0.00000000000E+00 0.  1.
          6    2    1    2  501    0  0.41484189882E+02 -0.85068674082E+02 -0.37974254843E+03  0.42692189219E+03  0.17058804654E+03 0.  0.
         24    2    3    3    0    0  0.40352428617E+02 -0.17330860661E+02 -0.32763433259E+03  0.34132371225E+03  0.85023193473E+02 0.  0.
         -6    2    1    2    0  502 -0.41484189882E+02  0.85068674082E+02 -0.16718929961E+02  0.19713050369E+03  0.17211419333E+03 0.  0.
        -24    2    5    5    0    0 -0.39847371240E+02 -0.13027185568E+02  0.20284116835E+02  0.92169595118E+02  0.79537841999E+02 0.  0.
          5    1    3    3  501    0  0.11317612645E+01 -0.67737813421E+02 -0.52108215841E+02  0.85598179938E+02  0.47000000000E+01 0. -1.
        -13    1    4    4    0    0  0.37890238086E+02 -0.49964428036E+02 -0.20300076826E+03  0.21246511743E+03  0.00000000000E+00 0.  1.
         14    1    4    4    0    0  0.24621905312E+01  0.32633567375E+02 -0.12463356433E+03  0.12885859482E+03  0.00000000000E+00 0. -1.
         -5    1    5    5    0  502 -0.16368186417E+01  0.98095859650E+02 -0.37003046796E+02  0.10496090857E+03  0.47000000000E+01 0.  1.
         13    1    6    6    0    0 -0.63719104026E+02 -0.11719088791E+02  0.21414900233E+02  0.68235322318E+02  0.00000000000E+00 0. -1.
        -14    1    6    6    0    0  0.23871732786E+02 -0.13080967764E+01 -0.11307833975E+01  0.23934272800E+02  0.00000000000E+00 0.  1.
</event>
<event>
12    1  0.1596842E-001  0.1964333E+03  0.7818608E-02  0.1152950E+00
         21   -1    0    0  501  502  0.00000000000E+00  0.00000000000E+00  0.56909823719E+03  0.56909823719E+03  0.00000000000E+00 0. -1.
         21   -1    0    0  502  503 -0.00000000000E+00 -0.00000000000E+00 -0.52929734489E+03  0.52929734489E+03  0.00000000000E+00 0.  1.
         -6    2    1    2    0  503  0.93015207205E+02 -0.25027441054E+01 -0.49306887870E+03  0.53047283933E+03  0.17212327450E+03 0.  0.
        -24    2    3    3    0    0  0.82889622560E+02  0.34457644332E+02 -0.19029029905E+03  0.22524250652E+03  0.80410012102E+02 0.  0.
          6    2    1    2  501    0 -0.93015207205E+02  0.25027441054E+01  0.53286977100E+03  0.56792274276E+03  0.17299698378E+03 0.  0.
         24    2    5    5    0    0 -0.10182073996E+03  0.24667632129E+02  0.24392984798E+03  0.27796207511E+03  0.82372260516E+02 0.  0.
          5    1    5    5  501    0  0.88055327558E+01 -0.22164888023E+02  0.28893992302E+03  0.28996066764E+03  0.47000000000E+01 0. -1.
        -11    1    6    6    0    0 -0.36224383818E+02  0.40226663415E+01  0.15856804858E+02  0.39747026150E+02  0.00000000000E+00 0.  1.
         12    1    6    6    0    0 -0.65596356142E+02  0.20644965787E+02  0.22807304312E+03  0.23821504896E+03  0.00000000000E+00 0. -1.
         -5    1    3    3    0  503  0.10125584645E+02 -0.36960388437E+02 -0.30277857964E+03  0.30523033281E+03  0.47000000000E+01 0.  1.
         13    1    4    4    0    0 -0.21644727267E+01 -0.19056460875E+02 -0.21564599719E+02  0.28859411018E+02  0.00000000000E+00 0. -1.
        -14    1    4    4    0    0  0.85054095286E+02  0.53514105206E+02 -0.16872569934E+03  0.19638309550E+03  0.00000000000E+00 0.  1.
</event>
<event>
12    1  0.1596842E-001  0.1975783E+03  0.7818608E-02  0.1152302E+00
         21   -1    0    0  503  502  0.00000000000E+00  0.00000000000E+00  0.46815508138E+02  0.46815508138E+02  0.00000000000E+00 0.  1.
         21   -1    0    0  501  503 -0.00000000000E+00 -0.00000000000E+00 -0.33462087070E+04  0.33462087070E+04  0.00000000000E+00 0.  1.
          6    2    1    2  501    0  0.10901665082E+02 -0.95790903788E+02 -0.31201598319E+04  0.31262625826E+04  0.16978108037E+03 0.  0.
         24    2    3    3    0    0 -0.53215916792E+02 -0.28907717652E+02 -0.18254981377E+04  0.18282812972E+04  0.80631637246E+02 0.  0.
         -6    2    1    2    0  502 -0.10901665082E+02  0.95790903788E+02 -0.17923336695E+03  0.26676163252E+03  0.17245992348E+03 0.  0.
        -24    2    5    5    0    0 -0.72017288308E+02  0.49497679605E+02 -0.87703236133E+02  0.14727089290E+03  0.79751790991E+02 0.  0.
          5    1    3    3  501    0  0.64117581874E+02 -0.66883186135E+02 -0.12946616942E+04  0.12979812855E+04  0.47000000000E+01 0. -1.
        -11    1    4    4    0    0  0.18431499847E+02  0.65653012986E+01 -0.25498775750E+03  0.25573732586E+03  0.00000000000E+00 0.  1.
         12    1    4    4    0    0 -0.71647416639E+02 -0.35473018951E+02 -0.15705103802E+04  0.15725439713E+04  0.00000000000E+00 0. -1.
         -5    1    5    5    0  502  0.61115623225E+02  0.46293224182E+02 -0.91530130817E+02  0.11949073962E+03  0.47000000000E+01 0.  1.
         13    1    6    6    0    0 -0.39947357392E+02 -0.72212815865E+01 -0.68006594534E+02  0.79201232127E+02  0.00000000000E+00 0. -1.
        -14    1    6    6    0    0 -0.32069930916E+02  0.56718961192E+02 -0.19696641599E+02  0.68069660774E+02  0.00000000000E+00 0.  1.
</event>
<event>
12    1  0.1596842E-001  0.2298975E+03  0.7818608E-02  0.1127459E+00
         21   -1    0    0  503  502  0.00000000000E+00  0.00000000000E+00  0.11191037490E+04  0.11191037490E+04  0.00000000000E+00 0. -1.
         21   -1    0    0  501  503 -0.00000000000E+00 -0.00000000000E+00 -0.49665164313E+02  0.49665164313E+02  0.00000000000E+00 0. -1.
          6    2    1    2  501    0  0.14574320201E+03 -0.28915734090E+02  0.37956726723E+03  0.44159952854E+03  0.16988711735E+03 0.  0.
         24    2    3    3    0    0  0.12704882948E+03 -0.51970416841E+02  0.38348935828E+03  0.41129324604E+03  0.57058890810E+02 0.  0.
         -6    2    1    2    0  502 -0.14574320201E+03  0.28915734090E+02  0.68987131750E+03  0.72716938482E+03  0.17542998290E+03 0.  0.
        -24    2    5    5    0    0 -0.10444697126E+03  0.77652166815E+02  0.57551243611E+03  0.59609435935E+03  0.84704736089E+02 0.  0.
          5    1    3    3  501    0  0.18694372530E+02  0.23054682751E+02 -0.39220910483E+01  0.30306282504E+02  0.47000000000E+01 0. -1.
        -11    1    4    4    0    0  0.92299217409E+02 -0.48528346978E+02  0.33935327061E+03  0.35501378603E+03  0.00000000000E+00 0.  1.
         12    1    4    4    0    0  0.34749612071E+02 -0.34420698624E+01  0.44136087671E+02  0.56279460009E+02  0.00000000000E+00 0. -1.
         -5    1    5    5    0  502 -0.41296230752E+02 -0.48736432726E+02  0.11435888139E+03  0.13107502547E+03  0.47000000000E+01 0.  1.
         11    1    6    6    0    0 -0.28953974503E+02  0.34755765319E+02  0.37326287872E+03  0.37599397933E+03  0.00000000000E+00 0. -1.
        -12    1    6    6    0    0 -0.75492996754E+02  0.42896401496E+02  0.20224955738E+03  0.22010038001E+03  0.00000000000E+00 0.  1.
</event>
<event>
12    1  0.1596842E-001  0.2555363E+03  0.7818608E-02  0.1109907E+00
         21   -1    0    0  503  502  0.00000000000E+00  0.00000000000E+00  0.90919132800E+02  0.90919132800E+02  0.00000000000E+00 0. -1.
         21   -1    0    0  501  503 -0.00000000000E+00 -0.00000000000E+00 -0.12696444389E+04  0.12696444389E+04  0.00000000000E+00 0. -1.
          6    2    1    2  501    0 -0.75559450420E+02 -0.17299366717E+03 -0.10382985578E+04  0.10692813957E+04  0.17222882628E+03 0.  0.
         24    2    3    3    0    0 -0.24923325369E+02 -0.16262729686E+03 -0.58162318828E+03  0.60966638079E+03  0.79616285300E+02 0.  0.
         -6    2    1    2    0  502  0.75559450420E+02  0.17299366717E+03 -0.14042674828E+03  0.29128217599E+03  0.17172534755E+03 0.  0.
        -24    2    5    5    0    0  0.10889395290E+03  0.12212025034E+03 -0.14087313197E+03  0.23027739869E+03  0.80069922661E+02 0.  0.
          5    1    3    3  501    0 -0.50636125051E+02 -0.10366370304E+02 -0.45667536954E+03  0.45961501491E+03  0.47000000000E+01 0. -1.
        -13    1    4    4    0    0 -0.14015596315E+02  0.49357600231E+01 -0.47613743716E+02  0.49878525015E+02  0.00000000000E+00 0.  1.
         14    1    4    4    0    0 -0.10907729054E+02 -0.16756305689E+03 -0.53400944457E+03  0.55978785578E+03  0.00000000000E+00 0. -1.
         -5    1    5    5    0  502 -0.33334502483E+02  0.50873416826E+02  0.44638369156E+00  0.61004777302E+02  0.47000000000E+01 0.  1.
         11    1    6    6    0    0  0.10108053213E+03  0.13042545077E+03 -0.11253280956E+03  0.19972908004E+03  0.00000000000E+00 0. -1.
        -12    1    6    6    0    0  0.78134207702E+01 -0.83052004310E+01 -0.28340322407E+02  0.30548318652E+02  0.00000000000E+00 0.  1.
</event>
<event>
12    1  0.1596842E-001  0.1923487E+03  0.7818608E-02  0.1156480E+00
         21   -1    0    0  501  502  0.00000000000E+00  0.00000000000E+00  0.10827559646E+03  0.10827559646E+03  0.00000000000E+00 0.  1.
         21   -1    0    0  502  503 -0.00000000000E+00 -0.00000000000E+00 -0.35358680670E+03  0.35358680670E+03  0.00000000000E+00 0.  1.
         -6    2    1    2    0  503 -0.44973792255E+02 -0.72482150658E+02 -0.16650101452E+03  0.25399445204E+03  0.17179723419E+03 0.  0.
        -24    2    3    3    0    0 -0.94633068802E+02 -0.65238419399E+02 -0.10715791727E+03  0.17613426593E+03  0.79554957883E+02 0.  0.
          6    2    1    2  501    0  0.44973792255E+02  0.72482150658E+02 -0.78810195721E+02  0.20786795111E+03  0.17239992459E+03 0.  0.
         24    2    5    5    0    0  0.46412705232E+02 -0.19527292285E+02 -0.67822082501E+02  0.11507443467E+03  0.78146249366E+02 0.  0.
          5    1    5    5  501    0 -0.14389129771E+01  0.92009442943E+02 -0.10988113220E+02  0.92793516440E+02  0.47000000000E+01 0. -1.
        -13    1    6    6    0    0 -0.97774741242E+01 -0.18368580322E+02 -0.53017848564E+02  0.56955210557E+02  0.00000000000E+00 0.  1.
         14    1    6    6    0    0  0.56190179356E+02 -0.11587119631E+01 -0.14804233937E+02  0.58119224117E+02  0.00000000000E+00 0. -1.
         -5    1    3    3    0  503  0.49659276547E+02 -0.72437312585E+01 -0.59343097253E+02  0.77860186112E+02  0.47000000000E+01 0.  1.
         11    1    4    4    0    0 -0.47008248170E+02 -0.65089854926E+02 -0.99569630085E+02  0.12790846667E+03  0.00000000000E+00 0. -1.
        -12    1    4    4    0    0 -0.47624820632E+02 -0.14856447286E+00 -0.75882871822E+01  0.48225799257E+02  0.00000000000E+00 0.  1.
</event>
<event>
12    1  0.1596842E-001  0.1821623E+03  0.7818608E-02  0.1166242E+00
         21   -1    0    0  501  502  0.00000000000E+00  0.00000000000E+00  0.59969629065E+03  0.59969629065E+03  0.00000000000E+00 0. -1.
         21   -1    0    0  502  503 -0.00000000000E+00 -0.00000000000E+00 -0.79996758679E+02  0.79996758679E+02  0.00000000000E+00 0. -1.
         -6    2    1    2    0  503 -0.54072767089E+02  0.13290798486E+02  0.69730233298E+02  0.19505236216E+03  0.17344338870E+03 0.  0.
        -24    2    3    3    0    0  0.30622729779E+01 -0.28908217393E+02  0.92983367046E+02  0.12016599509E+03  0.70348399271E+02 0.  0.
          6    2    1    2  501    0  0.54072767089E+02 -0.13290798486E+02  0.44996929867E+03  0.48464068716E+03  0.17118328318E+03 0.  0.
         24    2    5    5    0    0 -0.10044349568E+02  0.13586086631E+02  0.99908818232E+02  0.12771240085E+03  0.77738115894E+02 0.  0.
          5    1    5    5  501    0  0.64117116658E+02 -0.26876885118E+02  0.35006048044E+03  0.35692828631E+03  0.47000000000E+01 0. -1.
        -13    1    6    6    0    0  0.19248633112E+02  0.36440805424E+02  0.63439748960E+02  0.75650802539E+02  0.00000000000E+00 0.  1.
         14    1    6    6    0    0 -0.29292982680E+02 -0.22854718793E+02  0.36469069272E+02  0.52061598313E+02  0.00000000000E+00 0. -1.
         -5    1    3    3    0  503 -0.57135040067E+02  0.42199015879E+02 -0.23253133748E+02  0.74886367076E+02  0.47000000000E+01 0.  1.
         11    1    4    4    0    0  0.53414489581E+01  0.22602414936E+02  0.19100584630E+02  0.30070460108E+02  0.00000000000E+00 0. -1.
        -12    1    4    4    0    0 -0.22791759802E+01 -0.51510632329E+02  0.73882782416E+02  0.90095534981E+02  0.00000000000E+00 0.  1.
</event>
<event>
12    1  0.1596842E-001  0.2268533E+03  0.7818608E-02  0.1131032E+00
         21   -1    0    0  501  502  0.00000000000E+00  0.00000000000E+00  0.35015587383E+02  0.35015587383E+02  0.00000000000E+00 0. -1.
         21   -1    0    0  502  503 -0.00000000000E+00 -0.00000000000E+00 -0.17123843157E+04  0.17123843157E+04  0.00000000000E+00 0. -1.
         -6    2    1    2    0  503  0.11852559806E+02  0.12920646445E+03 -0.11967325086E+04  0.12159174318E+04  0.17161500569E+03 0.  0.
        -24    2    3    3    0    0  0.89194733790E+01  0.38137616288E+02 -0.92563320217E+03  0.92987711637E+03  0.79627833154E+02 0.  0.
          6    2    1    2  501    0 -0.11852559806E+02 -0.12920646445E+03 -0.48063621970E+03  0.53148247127E+03  0.18608505568E+03 0.  0.
         24    2    5    5    0    0  0.45139820160E+02 -0.83570870561E+01 -0.16038993353E+03  0.18444864410E+03  0.78669735386E+02 0.  0.
          5    1    5    5  501    0 -0.56992379965E+02 -0.12084937740E+03 -0.32024628617E+03  0.34703382716E+03  0.47000000000E+01 0. -1.
        -13    1    6    6    0    0  0.12065239031E+02  0.13146473070E+02  0.14188802599E+01  0.17900082911E+02  0.00000000000E+00 0.  1.
         14    1    6    6    0    0  0.33074581129E+02 -0.21503560126E+02 -0.16180881379E+03  0.16654856119E+03  0.00000000000E+00 0. -1.
         -5    1    3    3    0  503  0.29330864267E+01  0.91068848164E+02 -0.27109930645E+03  0.28604031545E+03  0.47000000000E+01 0.  1.
         11    1    4    4    0    0 -0.26562582339E+02  0.44026671761E+02 -0.46254320922E+03  0.46539245697E+03  0.00000000000E+00 0. -1.
        -12    1    4    4    0    0  0.35482055718E+02 -0.58890554723E+01 -0.46308999294E+03  0.46448465940E+03  0.00000000000E+00 0.  1.
</event>
<event>
12    1  0.1596842E-001  0.1835257E+03  0.7818608E-02  0.1164448E+00
         21   -1    0    0  501  502  0.00000000000E+00  0.00000000000E+00  0.75762082583E+03  0.75762082583E+03  0.00000000000E+00 0.  1.
         21   -1    0    0  502  503 -0.00000000000E+00 -0.00000000000E+00 -0.77678971292E+02  0.77678971292E+02  0.00000000000E+00 0.  1.
         -6    2    1    2    0  503 -0.34496740764E+02  0.51638029966E+02  0.66747790632E+02  0.19523054732E+03  0.17263599796E+03 0.  0.
        -24    2    3    3    0    0  0.35135056149E+02 -0.12782590629E+02  0.24540842913E+02  0.91297299826E+02  0.79593198145E+02 0.  0.
          6    2    1    2  501    0  0.34496740764E+02 -0.51638029966E+02  0.61319406391E+03  0.64006924980E+03  0.17269966204E+03 0.  0.
         24    2    5    5    0    0 -0.35184466835E+02 -0.15215104965E+02  0.44877553958E+03  0.45775731575E+03  0.81687386210E+02 0.  0.
          5    1    5    5  501    0  0.69681207599E+02 -0.36422925001E+02  0.16441852432E+03  0.18231193405E+03  0.47000000000E+01 0. -1.
        -11    1    6    6    0    0 -0.35258340745E+02 -0.44634437175E+02  0.35337712308E+03  0.35792565526E+03  0.00000000000E+00 0.  1.
         12    1    6    6    0    0  0.73873909835E-01  0.29419332210E+02  0.95398416505E+02  0.99831660492E+02  0.00000000000E+00 0. -1.
         -5    1    3    3    0  503 -0.69631796913E+02  0.64420620595E+02  0.42206947718E+02  0.10393324750E+03  0.47000000000E+01 0.  1.
         11    1    4    4    0    0  0.29993063528E+02 -0.44920776846E+02  0.23021309287E+02  0.58714910658E+02  0.00000000000E+00 0. -1.
        -12    1    4    4    0    0  0.51419926205E+01  0.32138186217E+02  0.15195336258E+01  0.32582389168E+02  0.00000000000E+00 0.  1.
</event>
<event>
12    1  0.1596842E-001  0.1987770E+03  0.7818608E-02  0.1151150E+00
         21   -1    0    0  501  502  0.00000000000E+00  0.00000000000E+00  0.40009130034E+03  0.40009130034E+03  0.00000000000E+00 0.  1.
         21   -1    0    0  502  503 -0.00000000000E+00 -0.00000000000E+00 -0.15177427914E+03  0.15177427914E+03  0.00000000000E+00 0.  1.
         -6    2    1    2    0  503 -0.92477840568E+02 -0.39763971240E+02 -0.39900862787E+02  0.20274215234E+03  0.17140296695E+03 0.  0.
        -24    2    3    3    0    0 -0.53060271277E+02 -0.29535212164E+02  0.43577835087E+02  0.10974131751E+03  0.80351776036E+02 0.  0.
          6    2    1    2  501    0  0.92477840568E+02  0.39763971240E+02  0.28821788399E+03  0.34912342715E+03  0.16936438329E+03 0.  0.
         24    2    5    5    0    0  0.59865421488E+02  0.53001110710E+02  0.29220600025E+03  0.31339127341E+03  0.80229403836E+02 0.  0.
          5    1    5    5  501    0  0.32612419079E+02 -0.13237139471E+02 -0.39881162594E+01  0.35732153740E+02  0.47000000000E+01 0. -1.
        -13    1    6    6    0    0  0.49081818647E+02 -0.88264538649E+01  0.11306278433E+03  0.12357234484E+03  0.00000000000E+00 0.  1.
         14    1    6    6    0    0  0.10783602842E+02  0.61827564575E+02  0.17914321592E+03  0.18981892857E+03  0.00000000000E+00 0. -1.
         -5    1    3    3    0  503 -0.39417569291E+02 -0.10228759076E+02 -0.83478697874E+02  0.93000834834E+02  0.47000000000E+01 0.  1.
         13    1    4    4    0    0  0.15845410586E+02 -0.11170058631E+02  0.32117684453E+02  0.37515235587E+02  0.00000000000E+00 0. -1.
        -14    1    4    4    0    0 -0.68905681863E+02 -0.18365153532E+02  0.11460150634E+02  0.72226081922E+02  0.00000000000E+00 0.  1.
</event>
<event>
12    1  0.1596842E-001  0.1978907E+03  0.7818608E-02  0.1151937E+00
         21   -1    0    0  501  502  0.00000000000E+00  0.00000000000E+00  0.26028751547E+03  0.26028751547E+03  0.00000000000E+00 0.  1.
         21   -1    0    0  502  503 -0.00000000000E+00 -0.00000000000E+00 -0.14990756526E+03  0.14990756526E+03  0.00000000000E+00 0.  1.
         -6    2    1    2    0  503 -0.64419416318E+02 -0.68069919332E+02  0.39678350103E+02  0.20182934496E+03  0.17429095760E+03 0.  0.
        -24    2    3    3    0    0 -0.68113855809E+02 -0.91077927541E+02 -0.22968028008E+02  0.13482430026E+03  0.68668591008E+02 0.  0.
          6    2    1    2  501    0  0.64419416318E+02  0.68069919332E+02  0.70701600113E+02  0.20836573577E+03  0.17214583488E+03 0.  0.
         24    2    5    5    0    0  0.57714325778E+02  0.62170761302E+02 -0.18824361958E+02  0.11827274942E+03  0.80236772690E+02 0.  0.
          5    1    5    5  501    0  0.67050905402E+01  0.58991580297E+01  0.89525962071E+02  0.90092986350E+02  0.47000000000E+01 0. -1.
        -13    1    6    6    0    0  0.26117800419E+02 -0.12618676792E+02 -0.22936022829E+02  0.36978799952E+02  0.00000000000E+00 0.  1.
         14    1    6    6    0    0  0.31596525359E+02  0.74789438094E+02  0.41116608707E+01  0.81293949469E+02  0.00000000000E+00 0. -1.
         -5    1    3    3    0  503  0.36944394911E+01  0.23008008209E+02  0.62646378110E+02  0.67005044700E+02  0.47000000000E+01 0.  1.
         13    1    4    4    0    0 -0.11761616316E+02 -0.72418079286E+02 -0.15603721349E+02  0.75007932553E+02  0.00000000000E+00 0. -1.
        -14    1    4    4    0    0 -0.56352239494E+02 -0.18659848254E+02 -0.73643066587E+01  0.59816367705E+02  0.00000000000E+00 0.  1.
</event>
<event>
12    1  0.1596842E-001  0.1993880E+03  0.7818608E-02  0.1150572E+00
         21   -1    0    0  503  502  0.00000000000E+00  0.00000000000E+00  0.13964580793E+04  0.13964580793E+04  0.00000000000E+00 0. -1.
         21   -1    0    0  501  503 -0.00000000000E+00 -0.00000000000E+00 -0.11080187935E+03  0.11080187935E+03  0.00000000000E+00 0. -1.
          6    2    1    2  501    0  0.15595335279E+02  0.99562039129E+02 -0.82570171182E+01  0.19807433475E+03  0.17032160649E+03 0.  0.
         24    2    3    3    0    0  0.19262622486E+02 -0.11568063605E+02 -0.24896082180E+02  0.85547461450E+02  0.78699965261E+02 0.  0.
         -6    2    1    2    0  502 -0.15595335279E+02 -0.99562039129E+02  0.12939132171E+04  0.13091856239E+04  0.17204583805E+03 0.  0.
        -24    2    5    5    0    0 -0.46539640482E+02 -0.38964640721E+02  0.10827286686E+04  0.10872608658E+04  0.78426011366E+02 0.  0.
          5    1    3    3  501    0 -0.36672872067E+01  0.11113010273E+03  0.16639065062E+02  0.11252687330E+03  0.47000000000E+01 0. -1.
        -11    1    4    4    0    0 -0.29495650918E+02 -0.24876589910E+00  0.32284114386E+00  0.29498466638E+02  0.00000000000E+00 0.  1.
         12    1    4    4    0    0  0.48758273404E+02 -0.11319297706E+02 -0.25218923324E+02  0.56048994812E+02  0.00000000000E+00 0. -1.
         -5    1    5    5    0  502  0.30944305203E+02 -0.60597398408E+02  0.21118454853E+03  0.22192475810E+03  0.47000000000E+01 0.  1.
         11    1    6    6    0    0 -0.24166046991E+02 -0.62263514838E+02  0.70901331692E+03  0.71215210923E+03  0.00000000000E+00 0. -1.
        -12    1    6    6    0    0 -0.22373593491E+02  0.23298874117E+02  0.37371535166E+03  0.37510875662E+03  0.00000000000E+00 0.  1.
</event>
<event>
12    1  0.1596842E-001  0.2037750E+03  0.7818608E-02  0.1146641E+00
         21   -1    0    0  501  502  0.00000000000E+00  0.00000000000E+00  0.90413267616E+03  0.90413267616E+03  0.00000000000E+00 0.  1.
         21   -1    0    0  502  503 -0.00000000000E+00 -0.00000000000E+00 -0.93644840377E+02  0.93644840377E+02  0.00000000000E+00 0.  1.
         -6    2    1    2    0  503  0.10605604337E+03 -0.31968059405E+02  0.48809620946E+02  0.20931195406E+03  0.17076086747E+03 0.  0.
        -24    2    3    3    0    0  0.12107802099E+03 -0.23250828336E+02 -0.10324961022E+02  0.14750063865E+03  0.80307816527E+02 0.  0.
          6    2    1    2  501    0 -0.10605604337E+03  0.31968059405E+02  0.76167821484E+03  0.78846556247E+03  0.17103917414E+03 0.  0.
         24    2    5    5    0    0 -0.75213528671E+02  0.13681251031E+02  0.73570387489E+03  0.74394113762E+03  0.79649062624E+02 0.  0.
          5    1    5    5  501    0 -0.30842514696E+02  0.18286808374E+02  0.25974339941E+02  0.44524424855E+02  0.47000000000E+01 0. -1.
        -13    1    6    6    0    0 -0.67895974380E+02  0.13063279877E+02  0.28822576923E+03  0.29640277776E+03  0.00000000000E+00 0.  1.
         14    1    6    6    0    0 -0.73175542905E+01  0.61797115451E+00  0.44747810567E+03  0.44753835985E+03  0.00000000000E+00 0. -1.
         -5    1    3    3    0  503 -0.15021977624E+02 -0.87172310691E+01  0.59134581968E+02  0.61811315419E+02  0.47000000000E+01 0.  1.
         13    1    4    4    0    0 -0.60820844535E+01  0.39160214317E+01  0.13490895045E+02  0.15307881116E+02  0.00000000000E+00 0. -1.
        -14    1    4    4    0    0  0.12716010544E+03 -0.27166849768E+02 -0.23815856067E+02  0.13219275753E+03  0.00000000000E+00 0.  1.
</event>
<event>
12    1  0.1596842E-001  0.1986076E+03  0.7818608E-02  0.1151015E+00
         21   -1    0    0  503  502  0.00000000000E+00  0.00000000000E+00  0.91274523535E+02  0.91274523535E+02  0.00000000000E+00 0.  1.
         21   -1    0    0  501  503 -0.00000000000E+00 -0.00000000000E+00 -0.63895835223E+03  0.63895835223E+03  0.00000000000E+00 0.  1.
          6    2    1    2  501    0  0.86749487936E+02  0.43689237089E+02 -0.48226156781E+03  0.52155651950E+03  0.17323613985E+03 0.  0.
         24    2    3    3    0    0  0.10145352773E+03 -0.21836844598E+02 -0.32264305576E+03  0.34832247100E+03  0.80376217304E+02 0.  0.
         -6    2    1    2    0  502 -0.86749487936E+02 -0.43689237089E+02 -0.65422260885E+02  0.20867635627E+03  0.17271805450E+03 0.  0.
        -24    2    5    5    0    0 -0.10283776725E+03 -0.79731137020E+02 -0.29644403763E+02  0.15519742264E+03  0.79213564090E+02 0.  0.
          5    1    3    3  501    0 -0.14704039793E+02  0.65526081687E+02 -0.15961851205E+03  0.17323404849E+03  0.47000000000E+01 0. -1.
        -13    1    4    4    0    0  0.65629667752E+02 -0.29826139515E+02 -0.29120443392E+03  0.29999479032E+03  0.00000000000E+00 0.  1.
         14    1    4    4    0    0  0.35823859977E+02  0.79892949173E+01 -0.31438621840E+02  0.48327680682E+02  0.00000000000E+00 0. -1.
         -5    1    5    5    0  502  0.16088279312E+02  0.36041899931E+02 -0.35777857123E+02  0.53478933630E+02  0.47000000000E+01 0.  1.
         11    1    6    6    0    0 -0.43331859295E+02 -0.52566671245E+02 -0.52393238420E+02  0.85941587069E+02  0.00000000000E+00 0. -1.
        -12    1    6    6    0    0 -0.59505907953E+02 -0.27164465775E+02  0.22748834657E+02  0.69255835569E+02  0.00000000000E+00 0.  1.
</event>
<event>
12    1  0.1596842E-001  0.1852211E+03  0.7818608E-02  0.1162880E+00
         21   -1    0    0  503  502  0.00000000000E+00  0.00000000000E+00  0.60011071997E+03  0.60011071997E+03  0.00000000000E+00 0. -1.
         21   -1    0    0  501  503 -0.00000000000E+00 -0.00000000000E+00 -0.65330727878E+02  0.65330727878E+02  0.00000000000E+00 0. -1.
          6    2    1    2  501    0 -0.45103002917E+02  0.52196378383E+02  0.14952815716E+03  0.23804525401E+03  0.17189569623E+03 0.  0.
         24    2    3    3    0    0 -0.11215238959E+02 -0.37061673528E+02  0.68165463723E+02  0.11251693744E+03  0.80710479716E+02 0.  0.
         -6    2    1    2    0  502  0.45103002917E+02 -0.52196378383E+02  0.38525183493E+03  0.42739619385E+03  0.17172590779E+03 0.  0.
        -24    2    5    5    0    0 -0.24158799636E+02 -0.72119953083E+02  0.26614263865E+03  0.28810069227E+03  0.79907255889E+02 0.  0.
          5    1    3    3  501    0 -0.33887763958E+02  0.89258051911E+02  0.81362693439E+02  0.12552831657E+03  0.47000000000E+01 0. -1.
        -13    1    4    4    0    0  0.33925125498E+02 -0.75295910988E+01  0.19399396358E+02  0.39798812309E+02  0.00000000000E+00 0.  1.
         14    1    4    4    0    0 -0.45140364456E+02 -0.29532082429E+02  0.48766067365E+02  0.72718125127E+02  0.00000000000E+00 0. -1.
         -5    1    5    5    0  502  0.69261802552E+02  0.19923574700E+02  0.11910919628E+03  0.13929550158E+03  0.47000000000E+01 0.  1.
         11    1    6    6    0    0  0.20682120855E+02 -0.59447437779E+02  0.16954381053E+03  0.18085035712E+03  0.00000000000E+00 0. -1.
        -12    1    6    6    0    0 -0.44840920490E+02 -0.12672515303E+02  0.96598828121E+02  0.10725033515E+03  0.00000000000E+00 0.  1.
</event>
<event>
12    1  0.1596842E-001  0.2926688E+03  0.7818608E-02  0.1089005E+00
         21   -1    0    0  503  502  0.00000000000E+00  0.00000000000E+00  0.14101290842E+03  0.14101290842E+03  0.00000000000E+00 0.  1.
         21   -1    0    0  501  503 -0.00000000000E+00 -0.00000000000E+00 -0.73575763324E+03  0.73575763324E+03  0.00000000000E+00 0. -1.
          6    2    1    2  501    0  0.14913732076E+03  0.18287512361E+03 -0.48079580879E+03  0.56270145783E+03  0.17257772053E+03 0.  0.
         24    2    3    3    0    0  0.92577941359E+02  0.88013642623E+02 -0.14288610364E+03  0.20716985192E+03  0.78650063039E+02 0.  0.
         -6    2    1    2    0  502 -0.14913732076E+03 -0.18287512361E+03 -0.11394891603E+03  0.31406908383E+03  0.17311782889E+03 0.  0.
        -24    2    5    5    0    0 -0.33198703991E+02 -0.66347132190E+02 -0.10211335194E+03  0.14919729662E+03  0.79552503280E+02 0.  0.
          5    1    3    3  501    0  0.56559379398E+02  0.94861480984E+02 -0.33790970515E+03  0.35553160592E+03  0.47000000000E+01 0. -1.
        -13    1    4    4    0    0  0.30150458693E+02  0.67597559941E+02 -0.11282377410E+03  0.13493585243E+03  0.00000000000E+00 0.  1.
         14    1    4    4    0    0  0.62427482667E+02  0.20416082683E+02 -0.30062329537E+02  0.72233999484E+02  0.00000000000E+00 0. -1.
         -5    1    5    5    0  502 -0.11593861677E+03 -0.11652799142E+03 -0.11835564091E+02  0.16487178721E+03  0.47000000000E+01 0.  1.
         13    1    6    6    0    0 -0.30007111662E+02  0.20824555833E+01 -0.64210589256E+02  0.70906721431E+02  0.00000000000E+00 0. -1.
        -14    1    6    6    0    0 -0.31915923298E+01 -0.68429587773E+02 -0.37902762683E+02  0.78290575189E+02  0.00000000000E+00 0.  1.
</event>
<event>
12    1  0.1596842E-001  0.1853408E+03  0.7818608E-02  0.1163120E+00
         21   -1    0    0  501  502  0.00000000000E+00  0.00000000000E+00  0.24072969407E+03  0.24072969407E+03  0.00000000000E+00 0. -1.
         21   -1    0    0  502  503 -0.00000000000E+00 -0.00000000000E+00 -0.14432975445E+03  0.14432975445E+03  0.00000000000E+00 0. -1.
         -6    2    1    2    0  503 -0.21516426472E+02  0.61304103535E+02  0.21086093204E+02  0.18653638626E+03  0.17358009780E+03 0.  0.
        -24    2    3    3    0    0  0.14003964651E+02  0.69105083763E+02 -0.42197346479E+02  0.11339653928E+03  0.78144324439E+02 0.  0.
          6    2    1    2  501    0  0.21516426472E+02 -0.61304103535E+02  0.75313846421E+02  0.19852306226E+03  0.17180826834E+03 0.  0.
         24    2    5    5    0    0 -0.30207708857E+02 -0.22166574673E+02 -0.12629903615E+02  0.89146074231E+02  0.79897718230E+02 0.  0.
          5    1    5    5  501    0  0.51724135329E+02 -0.39137528862E+02  0.87943750035E+02  0.10937698803E+03  0.47000000000E+01 0. -1.
        -11    1    6    6    0    0  0.16160059210E+02 -0.19437583096E+02 -0.30291935895E+02  0.39453371599E+02  0.00000000000E+00 0.  1.
         12    1    6    6    0    0 -0.46367768067E+02 -0.27289915769E+01  0.17662032280E+02  0.49692702631E+02  0.00000000000E+00 0. -1.
         -5    1    3    3    0  503 -0.35520391123E+02 -0.78009802287E+01  0.63283439684E+02  0.73139846980E+02  0.47000000000E+01 0.  1.
         13    1    4    4    0    0 -0.16391139363E+02  0.33585051139E+00 -0.34022470534E+02  0.37766529447E+02  0.00000000000E+00 0. -1.
        -14    1    4    4    0    0  0.30395104014E+02  0.68769233252E+02 -0.81748759449E+01  0.75630009829E+02  0.00000000000E+00 0.  1.
</event>
<event>
12    1  0.1596842E-001  0.1854546E+03  0.7818608E-02  0.1162970E+00
         21   -1    0    0  501  502  0.00000000000E+00  0.00000000000E+00  0.18796364766E+03  0.18796364766E+03  0.00000000000E+00 0.  1.
         21   -1    0    0  502  503 -0.00000000000E+00 -0.00000000000E+00 -0.18592198715E+03  0.18592198715E+03  0.00000000000E+00 0.  1.
         -6    2    1    2    0  503 -0.25198639040E+02 -0.63874406541E+02  0.29760064247E+02  0.18782719711E+03  0.17227444190E+03 0.  0.
        -24    2    3    3    0    0  0.23947693638E+02 -0.66395740406E+02 -0.29910839244E+02  0.11033896663E+03  0.79360839698E+02 0.  0.
          6    2    1    2  501    0  0.25198639040E+02  0.63874406541E+02 -0.27718403740E+02  0.18605843770E+03  0.17068837428E+03 0.  0.
         24    2    5    5    0    0  0.62330127079E+02  0.28920444385E+01 -0.48268721048E+02  0.11161381779E+03  0.78958002938E+02 0.  0.
          5    1    5    5  501    0 -0.37131488039E+02  0.60982362102E+02  0.20550317308E+02  0.74444619907E+02  0.47000000000E+01 0. -1.
        -13    1    6    6    0    0  0.50991884585E+02 -0.84311759052E+01  0.87204204772E+01  0.52414718867E+02  0.00000000000E+00 0.  1.
         14    1    6    6    0    0  0.11338242495E+02  0.11323220344E+02 -0.56989141525E+02  0.59199098925E+02  0.00000000000E+00 0. -1.
         -5    1    3    3    0  503 -0.49146332678E+02  0.25213338653E+01  0.59670903491E+02  0.77488230485E+02  0.47000000000E+01 0.  1.
         11    1    4    4    0    0  0.32486817421E+02 -0.46268870330E+02  0.16620274198E+02  0.58927372097E+02  0.00000000000E+00 0. -1.
        -12    1    4    4    0    0 -0.85391237833E+01 -0.20126870076E+02 -0.46531113442E+02  0.51411594531E+02  0.00000000000E+00 0.  1.
</event>
<event>
12    1  0.1596842E-001  0.2060343E+03  0.7818608E-02  0.1144811E+00
         21   -1    0    0  503  502  0.00000000000E+00  0.00000000000E+00  0.31177069647E+03  0.31177069647E+03  0.00000000000E+00 0. -1.
         21   -1    0    0  501  503 -0.00000000000E+00 -0.00000000000E+00 -0.16862231045E+03  0.16862231045E+03  0.00000000000E+00 0.  1.
          6    2    1    2  501    0 -0.91248687550E+02 -0.67588529194E+02 -0.34212340895E+02  0.20853465915E+03  0.17152751248E+03 0.  0.
         24    2    3    3    0    0 -0.10910714133E+03 -0.50844829015E+02 -0.75841994526E+02  0.16001256183E+03  0.73228729900E+02 0.  0.
         -6    2    1    2    0  502  0.91248687550E+02  0.67588529194E+02  0.17736072691E+03  0.27185834776E+03  0.17191742651E+03 0.  0.
        -24    2    5    5    0    0  0.78130546668E+02  0.37874630258E+02  0.30133322761E+02  0.12101737208E+03  0.78729392638E+02 0.  0.
          5    1    3    3  501    0  0.17858453778E+02 -0.16743700179E+02  0.41629653632E+02  0.48522097322E+02  0.47000000000E+01 0. -1.
        -13    1    4    4    0    0  0.79765752204E+01 -0.11104180135E+02 -0.20279251844E+02  0.24457649602E+02  0.00000000000E+00 0.  1.
         14    1    4    4    0    0 -0.11708371655E+03 -0.39740648880E+02 -0.55562742683E+02  0.13555491223E+03  0.00000000000E+00 0. -1.
         -5    1    5    5    0  502  0.13118140882E+02  0.29713898936E+02  0.14722740415E+03  0.15084097568E+03  0.47000000000E+01 0.  1.
         11    1    6    6    0    0 -0.45539754587E+01  0.23107952878E+02  0.28548167700E+02  0.37009648171E+02  0.00000000000E+00 0. -1.
        -12    1    6    6    0    0  0.82684522127E+02  0.14766677380E+02  0.15851550607E+01  0.84007723911E+02  0.00000000000E+00 0.  1.
</event>
<event>
12    1  0.1596842E-001  0.2870435E+03  0.7818608E-02  0.1092032E+00
         21   -1    0    0  501  502  0.00000000000E+00  0.00000000000E+00  0.48553344425E+02  0.48553344425E+02  0.00000000000E+00 0.  1.
         21   -1    0    0  502  503 -0.00000000000E+00 -0.00000000000E+00 -0.19070383061E+04  0.19070383061E+04  0.00000000000E+00 0.  1.
         -6    2    1    2    0  503  0.20939609237E+03 -0.90271600213E+02 -0.12595608424E+04  0.12918542748E+04  0.17435098618E+03 0.  0.
        -24    2    3    3    0    0  0.16923855840E+03 -0.11853046441E+03 -0.81693822248E+03  0.84649142883E+03  0.80427104125E+02 0.  0.
          6    2    1    2  501    0 -0.20939609237E+03  0.90271600213E+02 -0.59892411928E+03  0.66373737570E+03  0.17274697664E+03 0.  0.
         24    2    5    5    0    0 -0.12725252954E+03  0.19288540138E+02 -0.47814208376E+03  0.50126722510E+03  0.77998234834E+02 0.  0.
          5    1    5    5  501    0 -0.82143562835E+02  0.70983060075E+02 -0.12078203552E+03  0.16247015060E+03  0.47000000000E+01 0. -1.
        -11    1    6    6    0    0 -0.11994114863E+03  0.40683972176E+02 -0.37986961504E+03  0.40042725826E+03  0.00000000000E+00 0.  1.
         12    1    6    6    0    0 -0.73113809059E+01 -0.21395432038E+02 -0.98272468720E+02  0.10083996683E+03  0.00000000000E+00 0. -1.
         -5    1    3    3    0  503  0.40157533971E+02  0.28258864193E+02 -0.44262261988E+03  0.44536284597E+03  0.47000000000E+01 0.  1.
         13    1    4    4    0    0  0.21922061931E+02 -0.58784195014E+02 -0.23482132006E+03  0.24305803986E+03  0.00000000000E+00 0. -1.
        -14    1    4    4    0    0  0.14731649647E+03 -0.59746269392E+02 -0.58211690242E+03  0.60343338897E+03  0.00000000000E+00 0.  1.
</event>
<event>
12    1  0.1596842E-001  0.2354212E+03  0.7818608E-02  0.1122889E+00
         21   -1    0    0  503  502  0.00000000000E+00  0.00000000000E+00  0.58982378380E+02  0.58982378380E+02  0.00000000000E+00 0. -1.
         21   -1    0    0  501  503 -0.00000000000E+00 -0.00000000000E+00 -0.10603595889E+04  0.10603595889E+04  0.00000000000E+00 0.  1.
          6    2    1    2  501    0  0.99803498947E+02  0.12612998086E+03 -0.31175792840E+03  0.39066116817E+03  0.17191169805E+03 0.  0.
         24    2    3    3    0    0  0.13728433697E+03  0.87824864031E+02 -0.23337796338E+03  0.29559485390E+03  0.79692207518E+02 0.  0.
         -6    2    1    2    0  502 -0.99803498947E+02 -0.12612998086E+03 -0.68961928217E+03  0.72868079915E+03  0.17184714790E+03 0.  0.
        -24    2    5    5    0    0  0.37187874813E+00 -0.60039195244E+02 -0.45117428500E+03  0.46169539709E+03  0.77456833074E+02 0.  0.
          5    1    3    3  501    0 -0.37480838021E+02  0.38305116830E+02 -0.78379965013E+02  0.95066314274E+02  0.47000000000E+01 0. -1.
        -11    1    4    4    0    0  0.54093530477E+02  0.32034996033E+02 -0.15856764965E+03  0.17057564459E+03  0.00000000000E+00 0.  1.
         12    1    4    4    0    0  0.83190806491E+02  0.55789867999E+02 -0.74810313731E+02  0.12501920931E+03  0.00000000000E+00 0. -1.
         -5    1    5    5    0  502 -0.10017537769E+03 -0.66090785618E+02 -0.23844499717E+03  0.26698540206E+03  0.47000000000E+01 0.  1.
         13    1    6    6    0    0  0.32741324825E+02 -0.20410677307E+02 -0.10710803142E+03  0.11384516017E+03  0.00000000000E+00 0. -1.
        -14    1    6    6    0    0 -0.32369446077E+02 -0.39628517937E+02 -0.34406625358E+03  0.34785023692E+03  0.00000000000E+00 0.  1.
</event>
<event>
12    1  0.1596842E-001  0.1776591E+03  0.7818608E-02  0.1171046E+00
         21   -1    0    0  503  502  0.00000000000E+00  0.00000000000E+00  0.82387444182E+03  0.82387444182E+03  0.00000000000E+00 0. -1.
         21   -1    0    0  501  503 -0.00000000000E+00 -0.00000000000E+00 -0.37486906862E+02  0.37486906862E+02  0.00000000000E+00 0. -1.
          6    2    1    2  501    0  0.17064653830E+02 -0.15182236923E+02  0.39465755197E+03  0.43280172509E+03  0.17618469623E+03 0.  0.
         24    2    3    3    0    0 -0.43583062876E+02  0.14648454525E+02  0.12890853568E+03  0.15855248561E+03  0.80046358651E+02 0.  0.
         -6    2    1    2    0  502 -0.17064653830E+02  0.15182236923E+02  0.39172998299E+03  0.42855962360E+03  0.17230574185E+03 0.  0.
        -24    2    5    5    0    0 -0.37755879784E+02 -0.35767094035E+02  0.33780067901E+03  0.35139472883E+03  0.81634338578E+02 0.  0.
          5    1    3    3  501    0  0.60647716706E+02 -0.29830691449E+02  0.26574901629E+03  0.27424923948E+03  0.47000000000E+01 0. -1.
        -11    1    4    4    0    0  0.28299129920E+01 -0.18387816586E+02  0.83929820828E+02  0.85967057822E+02  0.00000000000E+00 0.  1.
         12    1    4    4    0    0 -0.46412975868E+02  0.33036271111E+02  0.44978714850E+02  0.72585427790E+02  0.00000000000E+00 0. -1.
         -5    1    5    5    0  502  0.20691225955E+02  0.50949330958E+02  0.53929303983E+02  0.77164894769E+02  0.47000000000E+01 0.  1.
         11    1    6    6    0    0 -0.62692901045E+02 -0.23075255412E+02  0.26785077200E+03  0.27605597859E+03  0.00000000000E+00 0. -1.
        -12    1    6    6    0    0  0.24937021261E+02 -0.12691838623E+02  0.69949907014E+02  0.75338750243E+02  0.00000000000E+00 0.  1.
</event>
<event>
12    1  0.1596842E-001  0.1786542E+03  0.7818608E-02  0.1169548E+00
         21   -1    0    0  501  502  0.00000000000E+00  0.00000000000E+00  0.24947956121E+03  0.24947956121E+03  0.00000000000E+00 0. -1.
         21   -1    0    0  502  503 -0.00000000000E+00 -0.00000000000E+00 -0.12893021684E+03  0.12893021684E+03  0.00000000000E+00 0. -1.
         -6    2    1    2    0  503 -0.25402332460E-01  0.40777416117E+02  0.85045622284E+02  0.19626197363E+03  0.17211393353E+03 0.  0.
        -24    2    3    3    0    0 -0.58925717353E+02  0.21573645074E+02  0.17692772716E+02  0.10462940149E+03  0.81832848680E+02 0.  0.
          6    2    1    2  501    0  0.25402332460E-01 -0.40777416117E+02  0.35503722090E+02  0.18214780442E+03  0.17393823634E+03 0.  0.
         24    2    5    5    0    0 -0.17629914002E+01 -0.52851523829E+02 -0.39281443830E+02  0.10622749442E+03  0.83335808817E+02 0.  0.
          5    1    5    5  501    0  0.17883937327E+01  0.12074107712E+02  0.74785165920E+02  0.75920310002E+02  0.47000000000E+01 0. -1.
        -11    1    6    6    0    0  0.61204943846E+01  0.11000786460E+02 -0.39950383739E+02  0.41886882375E+02  0.00000000000E+00 0.  1.
         12    1    6    6    0    0 -0.78834857848E+01 -0.63852310289E+02  0.66893990900E+00  0.64340612043E+02  0.00000000000E+00 0. -1.
         -5    1    3    3    0  503  0.58900315021E+02  0.19203771043E+02  0.67352849568E+02  0.91632572138E+02  0.47000000000E+01 0.  1.
         11    1    4    4    0    0 -0.15287369288E+02  0.19398972033E+02 -0.30718771412E+02  0.39416578908E+02  0.00000000000E+00 0. -1.
        -12    1    4    4    0    0 -0.43638348065E+02  0.21746730413E+01  0.48411544129E+02  0.65212822586E+02  0.00000000000E+00 0.  1.
</event>
<event>
12    1  0.1596842E-001  0.1827432E+03  0.7818608E-02  0.1165284E+00
         21   -1    0    0  501  502  0.00000000000E+00  0.00000000000E+00  0.15050793951E+04  0.15050793951E+04  0.00000000000E+00 0. -1.
         21   -1    0    0  502  503 -0.00000000000E+00 -0.00000000000E+00 -0.71382363671E+02  0.71382363671E+02  0.00000000000E+00 0. -1.
         -6    2    1    2    0  503  0.47927424131E+02  0.27029216884E+02  0.62400870057E+02  0.19310349394E+03  0.17426265877E+03 0.  0.
        -24    2    3    3    0    0  0.31714793692E+02 -0.39710419841E+02  0.78205808025E+02  0.12247124522E+03  0.79374504177E+02 0.  0.
          6    2    1    2  501    0 -0.47927424131E+02 -0.27029216884E+02  0.13712961614E+04  0.13833582648E+04  0.17377948707E+03 0.  0.
         24    2    5    5    0    0 -0.74542506801E+02 -0.49249173978E+02  0.62100049642E+03  0.63224724509E+03  0.78185010830E+02 0.  0.
          5    1    5    5  501    0  0.26615082670E+02  0.22219957094E+02  0.75029566495E+03  0.75111101973E+03  0.47000000000E+01 0. -1.
        -11    1    6    6    0    0 -0.22929252045E+02  0.70931393661E+01  0.43227892663E+02  0.49444048474E+02  0.00000000000E+00 0.  1.
         12    1    6    6    0    0 -0.51613254756E+02 -0.56342313344E+02  0.57777260375E+03  0.58280319662E+03  0.00000000000E+00 0. -1.
         -5    1    3    3    0  503  0.16212630439E+02  0.66739636725E+02 -0.15804937968E+02  0.70632248726E+02  0.47000000000E+01 0.  1.
         13    1    4    4    0    0 -0.24663235438E+02  0.10352728270E+01  0.19971094136E+02  0.31752032582E+02  0.00000000000E+00 0. -1.
        -14    1    4    4    0    0  0.56378029129E+02 -0.40745692668E+02  0.58234713889E+02  0.90719212636E+02  0.00000000000E+00 0.  1.
</event>
<event>
12    1  0.1596842E-001  0.2998100E+03  0.7818608E-02  0.1085374E+00
         21   -1    0    0  501  502  0.00000000000E+00  0.00000000000E+00  0.17447367827E+03  0.17447367827E+03  0.00000000000E+00 0. -1.
         21   -1    0    0  502  503 -0.00000000000E+00 -0.00000000000E+00 -0.51944468460E+03  0.51944468460E+03  0.00000000000E+00 0.  1.
         -6    2    1    2    0  503  0.70419763082E+02  0.23442769164E+03 -0.20586478919E+03  0.36368437516E+03  0.17312055819E+03 0.  0.
        -24    2    3    3    0    0 -0.14188883419E+02  0.17127705539E+03 -0.94446000844E+02  0.21011724873E+03  0.75445722385E+02 0.  0.
          6    2    1    2  501    0 -0.70419763082E+02 -0.23442769164E+03 -0.13910621714E+03  0.33023398772E+03  0.17259392039E+03 0.  0.
         24    2    5    5    0    0 -0.85113781595E+02 -0.23402665086E+03 -0.15842561773E+03  0.30550739772E+03  0.78887670627E+02 0.  0.
          5    1    5    5  501    0  0.14694018513E+02 -0.40104077918E+00  0.19319400590E+02  0.24726589998E+02  0.47000000000E+01 0. -1.
        -11    1    6    6    0    0 -0.35893428700E+02 -0.19438210670E+03 -0.12672458819E+03  0.23480175230E+03  0.00000000000E+00 0.  1.
         12    1    6    6    0    0 -0.49220352895E+02 -0.39644544162E+02 -0.31701029537E+02  0.70705645423E+02  0.00000000000E+00 0. -1.
         -5    1    3    3    0  503  0.84608646501E+02  0.63150636256E+02 -0.11141878835E+03  0.15356712643E+03  0.47000000000E+01 0.  1.
         13    1    4    4    0    0  0.10524743287E+02  0.28764596833E+02  0.94227764884E+01  0.32046231744E+02  0.00000000000E+00 0. -1.
        -14    1    4    4    0    0 -0.24713626706E+02  0.14251245855E+03 -0.10386877733E+03  0.17807101699E+03  0.00000000000E+00 0.  1.
</event>
<event>
12    1  0.1596842E-001  0.2078151E+03  0.7818608E-02  0.1143350E+00
         21   -1    0    0  503  502  0.00000000000E+00  0.00000000000E+00  0.71231206975E+03  0.71231206975E+03  0.00000000000E+00 0. -1.
         21   -1    0    0  501  503 -0.00000000000E+00 -0.00000000000E+00 -0.70231425245E+02  0.70231425245E+02  0.00000000000E+00 0. -1.
          6    2    1    2  501    0 -0.53943585780E+02 -0.10277183071E+03  0.46631905169E+03  0.51052970300E+03  0.17238085755E+03 0.  0.
         24    2    3    3    0    0 -0.10372440932E+03 -0.84939162130E+02  0.36320073565E+03  0.39454862022E+03  0.76029106217E+02 0.  0.
         -6    2    1    2    0  502  0.53943585780E+02  0.10277183071E+03  0.17576159282E+03  0.27201379199E+03  0.17212613366E+03 0.  0.
        -24    2    5    5    0    0  0.78089371516E+01  0.12375446192E+03  0.16223372525E+03  0.21934720090E+03  0.80107843495E+02 0.  0.
          5    1    3    3  501    0  0.49780823536E+02 -0.17832668583E+02  0.10311831604E+03  0.11598108278E+03  0.47000000000E+01 0. -1.
        -11    1    4    4    0    0 -0.47483625096E+02 -0.36098530117E+02  0.26308770082E+03  0.26976459525E+03  0.00000000000E+00 0.  1.
         12    1    4    4    0    0 -0.56240784219E+02 -0.48840632012E+02  0.10011303483E+03  0.12478402497E+03  0.00000000000E+00 0. -1.
         -5    1    5    5    0  502  0.46134648628E+02 -0.20982631211E+02  0.13527867576E+02  0.52666591096E+02  0.47000000000E+01 0.  1.
         13    1    6    6    0    0 -0.30085132273E+02  0.64318722480E+02  0.50112703738E+02  0.86909702113E+02  0.00000000000E+00 0. -1.
        -14    1    6    6    0    0  0.37894069424E+02  0.59435739442E+02  0.11212102151E+03  0.13243749878E+03  0.00000000000E+00 0.  1.
</event>
<event>
12    1  0.1596842E-001  0.1742026E+03  0.7818608E-02  0.1173567E+00
         21   -1    0    0  501  502  0.00000000000E+00  0.00000000000E+00  0.51815600870E+03  0.51815600870E+03  0.00000000000E+00 0. -1.
         21   -1    0    0  502  503 -0.00000000000E+00 -0.00000000000E+00 -0.77931812099E+02  0.77931812099E+02  0.00000000000E+00 0. -1.
         -6    2    1    2    0  503  0.27166686105E+02 -0.11080279532E+01  0.71318294357E+02  0.18811956266E+03  0.17194014710E+03 0.  0.
        -24    2    3    3    0    0  0.21972294241E+02 -0.30091933743E+02  0.10910775863E+03  0.13998244485E+03  0.79386873488E+02 0.  0.
          6    2    1    2  501    0 -0.27166686105E+02  0.11080279532E+01  0.36890590225E+03  0.40796825814E+03  0.17206765640E+03 0.  0.
         24    2    5    5    0    0 -0.86786136751E+01 -0.39095885112E+02  0.93960434716E+02  0.12944489545E+03  0.79521136175E+02 0.  0.
          5    1    5    5  501    0 -0.18488072430E+02  0.40203913065E+02  0.27494546753E+03  0.27852336269E+03  0.47000000000E+01 0. -1.
        -13    1    6    6    0    0 -0.26154703105E+02  0.16387664016E+02  0.32811790053E+02  0.45047059758E+02  0.00000000000E+00 0.  1.
         14    1    6    6    0    0  0.17476089430E+02 -0.55483549128E+02  0.61148644664E+02  0.84397835694E+02  0.00000000000E+00 0. -1.
         -5    1    3    3    0  503  0.51943918644E+01  0.28983905790E+02 -0.37789464270E+02  0.48137117815E+02  0.47000000000E+01 0.  1.
         11    1    4    4    0    0  0.44650396278E+02 -0.40546622609E+01  0.30783383147E+02  0.54384877051E+02  0.00000000000E+00 0. -1.
        -12    1    4    4    0    0 -0.22678102038E+02 -0.26037271483E+02  0.78324375480E+02  0.85597567796E+02  0.00000000000E+00 0.  1.
</event>
<event>
12    1  0.1596842E-001  0.1916841E+03  0.7818608E-02  0.1157173E+00
         21   -1    0    0  501  502  0.00000000000E+00  0.00000000000E+00  0.17847458994E+02  0.17847458994E+02  0.00000000000E+00 0. -1.
         21   -1    0    0  502  503 -0.00000000000E+00 -0.00000000000E+00 -0.27130795312E+04  0.27130795312E+04  0.00000000000E+00 0. -1.
         -6    2    1    2    0  503  0.64745587360E+02 -0.53551429028E+02 -0.20210050512E+04  0.20299812833E+04  0.17118074370E+03 0.  0.
        -24    2    3    3    0    0  0.10525588239E+03 -0.20230595692E+02 -0.17327297115E+04  0.17369350013E+04  0.55703391074E+02 0.  0.
          6    2    1    2  501    0 -0.64745587360E+02  0.53551429028E+02 -0.67422702099E+03  0.70094570686E+03  0.17228772881E+03 0.  0.
         24    2    5    5    0    0 -0.99949987817E+02  0.73691797950E+02 -0.56200525893E+03  0.58152712308E+03  0.83086717735E+02 0.  0.
          5    1    5    5  501    0  0.35204400457E+02 -0.20140368922E+02 -0.11222176206E+03  0.11941858378E+03  0.47000000000E+01 0. -1.
        -11    1    6    6    0    0 -0.29926093705E+02 -0.10326937914E+02 -0.22504217309E+03  0.22725799524E+03  0.00000000000E+00 0.  1.
         12    1    6    6    0    0 -0.70023894112E+02  0.84018735864E+02 -0.33696308584E+03  0.35426912784E+03  0.00000000000E+00 0. -1.
         -5    1    3    3    0  503 -0.40510295026E+02 -0.33320833337E+02 -0.28827533968E+03  0.29304628202E+03  0.47000000000E+01 0.  1.
         13    1    4    4    0    0  0.83299517271E+02 -0.38385527703E+02 -0.12449510768E+04  0.12483250546E+04  0.00000000000E+00 0. -1.
        -14    1    4    4    0    0  0.21956365116E+02  0.18154932011E+02 -0.48777863474E+03  0.48860994672E+03  0.00000000000E+00 0.  1.
</event>
<event>
12    1  0.1596842E-001  0.3507976E+03  0.7818608E-02  0.1062363E+00
         21   -1    0    0  503  502  0.00000000000E+00  0.00000000000E+00  0.40907895438E+03  0.40907895438E+03  0.00000000000E+00 0. -1.
         21   -1    0    0  501  503 -0.00000000000E+00 -0.00000000000E+00 -0.48515116185E+03  0.48515116185E+03  0.00000000000E+00 0.  1.
          6    2    1    2  501    0 -0.13272942839E+03 -0.27559700231E+03 -0.31407816878E+03  0.47031288054E+03  0.17023014026E+03 0.  0.
         24    2    3    3    0    0 -0.63658823077E+02 -0.12136643665E+03 -0.23367205762E+03  0.28310965243E+03  0.82256836113E+02 0.  0.
         -6    2    1    2    0  502  0.13272942839E+03  0.27559700231E+03  0.23800596130E+03  0.42391723569E+03  0.17172121666E+03 0.  0.
        -24    2    5    5    0    0  0.90233856287E+02  0.25580261164E+03  0.24795891344E+03  0.37576287133E+03  0.78338928864E+02 0.  0.
          5    1    3    3  501    0 -0.69070605309E+02 -0.15423056566E+03 -0.80406111162E+02  0.18720322811E+03  0.47000000000E+01 0. -1.
        -11    1    4    4    0    0 -0.78848607002E+02 -0.78373573606E+02 -0.13867745126E+03  0.17773844647E+03  0.00000000000E+00 0.  1.
         12    1    4    4    0    0  0.15189783925E+02 -0.42992863044E+02 -0.94994606352E+02  0.10537120596E+03  0.00000000000E+00 0. -1.
         -5    1    5    5    0  502  0.42495572098E+02  0.19794390676E+02 -0.99529521343E+01  0.48154364355E+02  0.47000000000E+01 0.  1.
         13    1    6    6    0    0 -0.25392147418E+00  0.89809905525E+02  0.10843530546E+03  0.14079807910E+03  0.00000000000E+00 0. -1.
        -14    1    6    6    0    0  0.90487777761E+02  0.16599270611E+03  0.13952360798E+03  0.23496479224E+03  0.00000000000E+00 0.  1.
</event>
<event>
12    1  0.1596842E-001  0.2127600E+03  0.7818608E-02  0.1140279E+00
         21   -1    0    0  501  502  0.00000000000E+00  0.00000000000E+00  0.12145768829E+04  0.12145768829E+04  0.00000000000E+00 0. -1.
         21   -1    0    0  502  503 -0.00000000000E+00 -0.00000000000E+00 -0.14255246495E+03  0.14255246495E+03  0.00000000000E+00 0.  1.
         -6    2    1    2    0  503  0.31584387808E+02 -0.12078154011E+03 -0.47829123220E+02  0.21806981379E+03  0.17228193369E+03 0.  0.
        -24    2    3    3    0    0 -0.23744791045E+01 -0.73900561921E+02 -0.94615450783E+02  0.14349045200E+03  0.78552498916E+02 0.  0.
          6    2    1    2  501    0 -0.31584387808E+02  0.12078154011E+03  0.11198535412E+04  0.11390595340E+04  0.16673006468E+03 0.  0.
         24    2    5    5    0    0  0.24463082410E+01  0.83077594656E+01  0.30579768912E+03  0.31655271958E+03  0.81353514429E+02 0.  0.
          5    1    5    5  501    0 -0.34030696049E+02  0.11247378064E+03  0.81405585203E+03  0.82250681446E+03  0.47000000000E+01 0. -1.
        -13    1    6    6    0    0  0.15487685966E+02  0.40058172333E+02  0.11641366070E+03  0.12408330260E+03  0.00000000000E+00 0.  1.
         14    1    6    6    0    0 -0.13041377725E+02 -0.31750412867E+02  0.18938402843E+03  0.19246941698E+03  0.00000000000E+00 0. -1.
         -5    1    3    3    0  503  0.33958866913E+02 -0.46880978186E+02  0.46786327563E+02  0.74579361787E+02  0.47000000000E+01 0.  1.
         13    1    4    4    0    0 -0.18189665910E+02  0.10898923186E+02 -0.13899978672E+02  0.25354681611E+02  0.00000000000E+00 0. -1.
        -14    1    4    4    0    0  0.15815186805E+02 -0.84799485107E+02 -0.80715472111E+02  0.11813577039E+03  0.00000000000E+00 0.  1.
</event>
<event>
12    1  0.1596842E-001  0.2446710E+03  0.7818608E-02  0.1116818E+00
         21   -1    0    0  501  502  0.00000000000E+00  0.00000000000E+00  0.35313234532E+03  0.35313234532E+03  0.00000000000E+00 0. -1.
         21   -1    0    0  502  503 -0.00000000000E+00 -0.00000000000E+00 -0.19976958721E+03  0.19976958721E+03  0.00000000000E+00 0. -1.
         -6    2    1    2    0  503 -0.14535783823E+03  0.94916697527E+02 -0.31708385814E+02  0.24611988254E+03  0.17155609651E+03 0.  0.
        -24    2    3    3    0    0 -0.17375264200E+03  0.80341913032E+02 -0.44182367840E+02  0.21153116398E+03  0.78412678276E+02 0.  0.
          6    2    1    2  501    0  0.14535783823E+03 -0.94916697527E+02  0.18507114393E+03  0.30678204998E+03  0.17241176663E+03 0.  0.
         24    2    5    5    0    0  0.78791537650E+02  0.49181320740E+01  0.38454885578E+02  0.11726560535E+03  0.77718399011E+02 0.  0.
          5    1    5    5  501    0  0.66566300579E+02 -0.99834829601E+02  0.14661625835E+03  0.18951644463E+03  0.47000000000E+01 0. -1.
        -13    1    6    6    0    0  0.13235935484E+02 -0.18042635872E+02 -0.17228620655E+02  0.28240964343E+02  0.00000000000E+00 0.  1.
         14    1    6    6    0    0  0.65555602166E+02  0.22960767946E+02  0.55683506233E+02  0.89024641006E+02  0.00000000000E+00 0. -1.
         -5    1    3    3    0  503  0.28394803773E+02  0.14574784495E+02  0.12473982026E+02  0.34588718565E+02  0.47000000000E+01 0.  1.
         11    1    4    4    0    0 -0.16617536716E+03  0.51248454041E+02 -0.24545276861E+02  0.17562211509E+03  0.00000000000E+00 0. -1.
        -12    1    4    4    0    0 -0.75772748421E+01  0.29093458991E+02 -0.19637090979E+02  0.35909048890E+02  0.00000000000E+00 0.  1.
</event>
<event>
12    1  0.1596842E-001  0.2925641E+03  0.7818608E-02  0.1089057E+00
         21   -1    0    0  503  502  0.00000000000E+00  0.00000000000E+00  0.21446728335E+03  0.21446728335E+03  0.00000000000E+00 0. -1.
         21   -1    0    0  501  503 -0.00000000000E+00 -0.00000000000E+00 -0.39914584611E+03  0.39914584611E+03  0.00000000000E+00 0.  1.
          6    2    1    2  501    0 -0.20487561981E+03 -0.11886012767E+03 -0.81961701521E+02  0.30382806676E+03  0.17173242004E+03 0.  0.
         24    2    3    3    0    0 -0.54605823268E+02 -0.26386897427E+02  0.12927857805E+02  0.10343238683E+03  0.82783240141E+02 0.  0.
         -6    2    1    2    0  502  0.20487561981E+03  0.11886012767E+03 -0.10271686123E+03  0.30978506270E+03  0.17121414061E+03 0.  0.
        -24    2    5    5    0    0  0.19565982698E+03  0.42846283542E+02 -0.81623966579E+02  0.23022354222E+03  0.78878612830E+02 0.  0.
          5    1    3    3  501    0 -0.15026979655E+03 -0.92473230241E+02 -0.94889559326E+02  0.20039567993E+03  0.47000000000E+01 0. -1.
        -13    1    4    4    0    0 -0.66678545292E+02  0.58130843341E+01  0.16272977899E+02  0.68881275840E+02  0.00000000000E+00 0.  1.
         14    1    4    4    0    0  0.12072722023E+02 -0.32199981761E+02 -0.33451200944E+01  0.34551110994E+02  0.00000000000E+00 0. -1.
         -5    1    5    5    0  502  0.92157928306E+01  0.76013844127E+02 -0.21092894652E+02  0.79561520481E+02  0.47000000000E+01 0.  1.
         11    1    6    6    0    0  0.36113504352E+02 -0.11978898528E+02  0.84564736038E+01  0.38976802747E+02  0.00000000000E+00 0. -1.
        -12    1    6    6    0    0  0.15954632263E+03  0.54825182070E+02 -0.90080440183E+02  0.19124673947E+03  0.00000000000E+00 0.  1.
</event>
<event>
12    1  0.1596842E-001  0.1849534E+03  0.7818608E-02  0.1163123E+00
         21   -1    0    0  501  502  0.00000000000E+00  0.00000000000E+00  0.55943379249E+02  0.55943379249E+02  0.00000000000E+00 0.  1.
         21   -1    0    0  502  503 -0.00000000000E+00 -0.00000000000E+00 -0.62905492366E+03  0.62905492366E+03  0.00000000000E+00 0.  1.
         -6    2    1    2    0  503 -0.63566354962E+02 -0.22417830327E+02 -0.34459856473E+03  0.39109581927E+03  0.17223393521E+03 0.  0.
        -24    2    3    3    0    0 -0.60695407214E+02  0.50823055527E+02 -0.20795391342E+03  0.23596258481E+03  0.78527675984E+02 0.  0.
          6    2    1    2  501    0  0.63566354962E+02  0.22417830327E+02 -0.22851297968E+03  0.29390248364E+03  0.17209662230E+03 0.  0.
         24    2    5    5    0    0  0.36729681261E+02  0.67070839031E+02 -0.80300481853E+02  0.13673018088E+03  0.79996300190E+02 0.  0.
          5    1    5    5  501    0  0.26836673700E+02 -0.44653008704E+02 -0.14821249783E+03  0.15717230275E+03  0.47000000000E+01 0. -1.
        -11    1    6    6    0    0 -0.24330020069E+02  0.32117354166E+02 -0.30405096716E+02  0.50477165347E+02  0.00000000000E+00 0.  1.
         12    1    6    6    0    0  0.61059701330E+02  0.34953484865E+02 -0.49895385137E+02  0.86253015534E+02  0.00000000000E+00 0. -1.
         -5    1    3    3    0  503 -0.28709477477E+01 -0.73240885854E+02 -0.13664465132E+03  0.15513323446E+03  0.47000000000E+01 0.  1.
         13    1    4    4    0    0 -0.17749414921E+01 -0.12445102857E+01  0.68683498713E+01  0.72023227577E+01  0.00000000000E+00 0. -1.
        -14    1    4    4    0    0 -0.58920465722E+02  0.52067565813E+02 -0.21482226329E+03  0.22876026205E+03  0.00000000000E+00 0.  1.
</event>
<event>
12    1  0.1596842E-001  0.1729642E+03  0.7818608E-02  0.1175839E+00
         21   -1    0    0  503  502  0.00000000000E+00  0.00000000000E+00  0.91551761896E+01  0.91551761896E+01  0.00000000000E+00 0.  1.
         21   -1    0    0  501  503 -0.00000000000E+00 -0.00000000000E+00 -0.32161257839E+04  0.32161257839E+04  0.00000000000E+00 0.  1.
          6    2    1    2  501    0  0.67168103397E+01  0.20479934601E+02 -0.17256774712E+04  0.17339238650E+04  0.16752519813E+03 0.  0.
         24    2    3    3    0    0  0.12311704722E+02  0.13375707939E+02 -0.17206206565E+04  0.17225469474E+04  0.79385483129E+02 0.  0.
         -6    2    1    2    0  502 -0.67168103397E+01 -0.20479934601E+02 -0.14812931365E+04  0.14913570950E+04  0.17161609864E+03 0.  0.
        -24    2    5    5    0    0 -0.19021642007E+02  0.33703008709E+02 -0.46559800903E+03  0.47413249729E+03  0.80761397415E+02 0.  0.
          5    1    3    3  501    0 -0.55948943820E+01  0.71042266624E+01 -0.50568146747E+01  0.11376917608E+02  0.47000000000E+01 0. -1.
        -13    1    4    4    0    0 -0.32932271705E+02 -0.30463586600E+01 -0.63737686947E+03  0.63823435238E+03  0.00000000000E+00 0.  1.
         14    1    4    4    0    0  0.45243976427E+02  0.16422066599E+02 -0.10832437870E+04  0.10843125951E+04  0.00000000000E+00 0. -1.
         -5    1    5    5    0  502  0.12304831667E+02 -0.54182943311E+02 -0.10156951275E+04  0.10172245977E+04  0.47000000000E+01 0.  1.
         13    1    6    6    0    0 -0.29034515481E+02 -0.42169306483E+01 -0.61544229357E+02  0.68179745970E+02  0.00000000000E+00 0. -1.
        -14    1    6    6    0    0  0.10012873475E+02  0.37919939358E+02 -0.40405377968E+03  0.40595275132E+03  0.00000000000E+00 0.  1.
</event>
<event>
12    1  0.1596842E-001  0.2338508E+03  0.7818608E-02  0.1125484E+00
         21   -1    0    0  503  502  0.00000000000E+00  0.00000000000E+00  0.32823620098E+02  0.32823620098E+02  0.00000000000E+00 0.  1.
         21   -1    0    0  501  503 -0.00000000000E+00 -0.00000000000E+00 -0.29702504932E+04  0.29702504932E+04  0.00000000000E+00 0. -1.
          6    2    1    2  501    0 -0.13095699037E+03 -0.63001758736E+02 -0.25016960984E+04  0.25126021503E+04  0.18321365105E+03 0.  0.
         24    2    3    3    0    0 -0.61832051214E+02  0.25915812028E+02 -0.16745225172E+04  0.16777831190E+04  0.80222826109E+02 0.  0.
         -6    2    1    2    0  502  0.13095699037E+03  0.63001758736E+02 -0.43573077468E+03  0.49047196299E+03  0.17199559165E+03 0.  0.
        -24    2    5    5    0    0  0.38559847202E+02  0.63023687517E+02 -0.33737826949E+03  0.35544404801E+03  0.84009091999E+02 0.  0.
          5    1    3    3  501    0 -0.69124939156E+02 -0.88917570764E+02 -0.82717358120E+03  0.83481903131E+03  0.47000000000E+01 0. -1.
        -11    1    4    4    0    0 -0.75297024554E+02  0.22521021126E+02 -0.98828009668E+03  0.99140021575E+03  0.00000000000E+00 0.  1.
         12    1    4    4    0    0  0.13464973339E+02  0.33947909021E+01 -0.68624242055E+03  0.68638290325E+03  0.00000000000E+00 0. -1.
         -5    1    5    5    0  502  0.92397143168E+02 -0.21928781723E-01 -0.98352505186E+02  0.13502791498E+03  0.47000000000E+01 0.  1.
         13    1    6    6    0    0  0.82817507002E+01  0.72229092402E+02 -0.16681016175E+03  0.18196499456E+03  0.00000000000E+00 0. -1.
        -14    1    6    6    0    0  0.30278096502E+02 -0.92054048844E+01 -0.17056810775E+03  0.17347905345E+03  0.00000000000E+00 0.  1.
</event>
<event>
12    1  0.1596842E-001  0.1754832E+03  0.7818608E-02  0.1172360E+00
         21   -1    0    0  501  502  0.00000000000E+00  0.00000000000E+00  0.60357399513E+02  0.60357399513E+02  0.00000000000E+00 0. -1.
         21   -1    0    0  502  503 -0.00000000000E+00 -0.00000000000E+00 -0.57123961241E+03  0.57123961241E+03  0.00000000000E+00 0. -1.
         -6    2    1    2    0  503  0.34035597408E+02 -0.13608129053E+02 -0.15081537914E+03  0.23104430038E+03  0.17115077297E+03 0.  0.
        -24    2    3    3    0    0  0.10645492582E+02 -0.45109347182E+02 -0.20564576757E+02  0.94931166306E+02  0.80254874018E+02 0.  0.
          6    2    1    2  501    0 -0.34035597408E+02  0.13608129053E+02 -0.36006683376E+03  0.40055271154E+03  0.17161219910E+03 0.  0.
         24    2    5    5    0    0 -0.28467780218E+02 -0.23260522267E+02 -0.35093858392E+03  0.36187826282E+03  0.80290229865E+02 0.  0.
          5    1    5    5  501    0 -0.55678171892E+01  0.36868651321E+02 -0.91282498366E+01  0.38674448717E+02  0.47000000000E+01 0. -1.
        -11    1    6    6    0    0 -0.38197745014E+02 -0.11951149625E+02 -0.70699421103E+02  0.81242266375E+02  0.00000000000E+00 0.  1.
         12    1    6    6    0    0  0.97299647954E+01 -0.11309372643E+02 -0.28023916282E+03  0.28063599645E+03  0.00000000000E+00 0. -1.
         -5    1    3    3    0  503  0.23390104826E+02  0.31501218128E+02 -0.13025080238E+03  0.13611313408E+03  0.47000000000E+01 0.  1.
         13    1    4    4    0    0 -0.10462872476E+02 -0.79474436457E+01  0.27582308216E+02  0.30551878624E+02  0.00000000000E+00 0. -1.
        -14    1    4    4    0    0  0.21108365058E+02 -0.37161903536E+02 -0.48146884973E+02  0.64379287682E+02  0.00000000000E+00 0.  1.
</event>
<event>
12    1  0.1596842E-001  0.2193831E+03  0.7818608E-02  0.1134396E+00
         21   -1    0    0  503  502  0.00000000000E+00  0.00000000000E+00  0.85035351216E+03  0.85035351216E+03  0.00000000000E+00 0. -1.
         21   -1    0    0  501  503 -0.00000000000E+00 -0.00000000000E+00 -0.90757398359E+02  0.90757398359E+02  0.00000000000E+00 0. -1.
          6    2    1    2  501    0 -0.66927862089E+02 -0.11878522991E+03  0.90963140000E+02  0.23749367906E+03  0.17187112959E+03 0.  0.
         24    2    3    3    0    0 -0.23417348270E+02 -0.75350767051E+01  0.81532957751E+02  0.11757379022E+03  0.81060615385E+02 0.  0.
         -6    2    1    2    0  502  0.66927862089E+02  0.11878522991E+03  0.66863297380E+03  0.70361723146E+03  0.17151642832E+03 0.  0.
        -24    2    5    5    0    0  0.25273852932E+02  0.11011085026E+03  0.63279805345E+03  0.64779131581E+03  0.80231199701E+02 0.  0.
          5    1    3    3  501    0 -0.43510513819E+02 -0.11125015321E+03  0.94301822489E+01  0.11991988884E+03  0.47000000000E+01 0. -1.
        -13    1    4    4    0    0 -0.24119844616E+02 -0.44402419675E+01  0.97888075677E+02  0.10091361659E+03  0.00000000000E+00 0.  1.
         14    1    4    4    0    0  0.70249634595E+00 -0.30948347375E+01 -0.16355117926E+02  0.16660173635E+02  0.00000000000E+00 0. -1.
         -5    1    5    5    0  502  0.41654009157E+02  0.86743796484E+01  0.35834920354E+02  0.55825915648E+02  0.47000000000E+01 0.  1.
         11    1    6    6    0    0  0.46065643524E+02  0.28101840511E+02  0.24558842545E+03  0.25144667758E+03  0.00000000000E+00 0. -1.
        -12    1    6    6    0    0 -0.20791790592E+02  0.82009009754E+02  0.38720962800E+03  0.39634463823E+03  0.00000000000E+00 0.  1.
</event>
<event>
12    1  0.1596842E-001  0.1865299E+03  0.7818608E-02  0.1162846E+00
         21   -1    0    0  501  502  0.00000000000E+00  0.00000000000E+00  0.28436554485E+03  0.28436554485E+03  0.00000000000E+00 0. -1.
         21   -1    0    0  502  503 -0.00000000000E+00 -0.00000000000E+00 -0.32869069540E+03  0.32869069540E+03  0.00000000000E+00 0. -1.
         -6    2    1    2    0  503  0.34897199395E+02 -0.63781146395E+02 -0.26711252629E+03  0.32579519097E+03  0.17177763416E+03 0.  0.
        -24    2    3    3    0    0 -0.22084630099E+02 -0.80373096317E+02 -0.22534855285E+03  0.25307283421E+03  0.79475302124E+02 0.  0.
          6    2    1    2  501    0 -0.34897199395E+02  0.63781146395E+02  0.22278737575E+03  0.28726104927E+03  0.16612900552E+03 0.  0.
         24    2    5    5    0    0  0.41278060668E+01 -0.22439716728E+02  0.72509434971E+02  0.10960256292E+03  0.78959001821E+02 0.  0.
          5    1    5    5  501    0 -0.39025005462E+02  0.86220863123E+02  0.15027794077E+03  0.17765848635E+03  0.47000000000E+01 0. -1.
        -11    1    6    6    0    0 -0.96082406666E+01  0.53982744316E+01 -0.13927469649E+02  0.17760463574E+02  0.00000000000E+00 0.  1.
         12    1    6    6    0    0  0.13736046733E+02 -0.27837991160E+02  0.86436904620E+02  0.91842099344E+02  0.00000000000E+00 0. -1.
         -5    1    3    3    0  503  0.56981829494E+02  0.16591949922E+02 -0.41763973445E+02  0.72722356760E+02  0.47000000000E+01 0.  1.
         11    1    4    4    0    0  0.53123615272E+01 -0.42540357823E+02 -0.30271047135E+02  0.52480849110E+02  0.00000000000E+00 0. -1.
        -12    1    4    4    0    0 -0.27396991626E+02 -0.37832738494E+02 -0.19507750572E+03  0.20059198510E+03  0.00000000000E+00 0.  1.
</event>
<event>
12    1  0.1596842E-001  0.2222812E+03  0.7818608E-02  0.1132312E+00
         21   -1    0    0  501  502  0.00000000000E+00  0.00000000000E+00  0.21642783134E+04  0.21642783134E+04  0.00000000000E+00 0.  1.
         21   -1    0    0  502  503 -0.00000000000E+00 -0.00000000000E+00 -0.27030284573E+02  0.27030284573E+02  0.00000000000E+00 0.  1.
         -6    2    1    2    0  503  0.14030881287E+03  0.45122473403E-01  0.63461282794E+03  0.67241533094E+03  0.17240177171E+03 0.  0.
        -24    2    3    3    0    0  0.39595700482E+02  0.45894090917E+02  0.19885321914E+03  0.22280017820E+03  0.80145053266E+02 0.  0.
          6    2    1    2  501    0 -0.14030881287E+03 -0.45122473403E-01  0.15026352008E+04  0.15188932670E+04  0.17157402103E+03 0.  0.
         24    2    5    5    0    0 -0.44543855671E+02 -0.36822226887E+02  0.10662750750E+04  0.10706124043E+04  0.76995799799E+02 0.  0.
          5    1    5    5  501    0 -0.95764957204E+02  0.36777104413E+02  0.43636012588E+03  0.44828086273E+03  0.47000000000E+01 0. -1.
        -13    1    6    6    0    0 -0.62847276419E+02 -0.21521765092E+02  0.92090159872E+03  0.92329449313E+03  0.00000000000E+00 0.  1.
         14    1    6    6    0    0  0.18303420749E+02 -0.15300461795E+02  0.14537347625E+03  0.14731791113E+03  0.00000000000E+00 0. -1.
         -5    1    3    3    0  503  0.10071311239E+03 -0.45848968443E+02  0.43575960880E+03  0.44961515275E+03  0.47000000000E+01 0.  1.
         13    1    4    4    0    0 -0.16989690623E+02  0.39649038989E+02  0.95922073950E+02  0.10517480759E+03  0.00000000000E+00 0. -1.
        -14    1    4    4    0    0  0.56585391106E+02  0.62450519282E+01  0.10293114519E+03  0.11762537061E+03  0.00000000000E+00 0.  1.
</event>
<event>
12    1  0.1596842E-001  0.2130921E+03  0.7818608E-02  0.1139557E+00
         21   -1    0    0  501  502  0.00000000000E+00  0.00000000000E+00  0.89497803904E+03  0.89497803904E+03  0.00000000000E+00 0.  1.
         21   -1    0    0  502  503 -0.00000000000E+00 -0.00000000000E+00 -0.10157174936E+03  0.10157174936E+03  0.00000000000E+00 0.  1.
         -6    2    1    2    0  503  0.27004338093E+02 -0.11865455535E+03  0.43435483564E+02  0.21747384166E+03  0.17492882208E+03 0.  0.
        -24    2    3    3    0    0 -0.31868477109E+02 -0.44892577186E+02  0.18056932132E+00  0.11355120025E+03  0.99312129939E+02 0.  0.
          6    2    1    2  501    0 -0.27004338093E+02  0.11865455535E+03  0.74997080612E+03  0.77907594674E+03  0.17232232293E+03 0.  0.
         24    2    5    5    0    0 -0.20676272842E+02  0.15386677134E+03  0.61638997653E+03  0.64070733542E+03  0.80416384642E+02 0.  0.
          5    1    5    5  501    0 -0.63280652515E+01 -0.35212215987E+02  0.13358082959E+03  0.13836861132E+03  0.47000000000E+01 0. -1.
        -13    1    6    6    0    0 -0.24554635172E+02  0.92819141783E+02  0.50088891690E+03  0.51000787275E+03  0.00000000000E+00 0.  1.
         14    1    6    6    0    0  0.38783623298E+01  0.61047629554E+02  0.11550105963E+03  0.13069946268E+03  0.00000000000E+00 0. -1.
         -5    1    3    3    0  503  0.58872815203E+02 -0.73761978165E+02  0.43254914243E+02  0.10392264142E+03  0.47000000000E+01 0.  1.
         13    1    4    4    0    0 -0.34308168663E+02 -0.75441113258E+02  0.12783727748E+01  0.82885742100E+02  0.00000000000E+00 0. -1.
        -14    1    4    4    0    0  0.24396915533E+01  0.30548536072E+02 -0.10978034535E+01  0.30665458148E+02  0.00000000000E+00 0.  1.
</event>
<event>
12    1  0.1596842E-001  0.1890198E+03  0.7818608E-02  0.1159755E+00
         21   -1    0    0  501  502  0.00000000000E+00  0.00000000000E+00  0.10767131529E+03  0.10767131529E+03  0.00000000000E+00 0.  1.
         21   -1    0    0  502  503 -0.00000000000E+00 -0.00000000000E+00 -0.33180525885E+03  0.33180525885E+03  0.00000000000E+00 0.  1.
         -6    2    1    2    0  503 -0.65324311092E+02  0.35860200141E+02 -0.13276899566E+03  0.22953359907E+03  0.17176975089E+03 0.  0.
        -24    2    3    3    0    0 -0.65158708686E+02 -0.26369897945E+02 -0.28201535537E+02  0.10775898658E+03  0.76652747805E+02 0.  0.
          6    2    1    2  501    0  0.65324311092E+02 -0.35860200141E+02 -0.91364947903E+02  0.20994297507E+03  0.17371033217E+03 0.  0.
         24    2    5    5    0    0 -0.56209175415E+01 -0.22468385265E+02  0.11125979921E+02  0.84487618636E+02  0.80485695767E+02 0.  0.
          5    1    5    5  501    0  0.70945228633E+02 -0.13391814876E+02 -0.10249092782E+03  0.12545535643E+03  0.47000000000E+01 0. -1.
        -11    1    6    6    0    0 -0.49343292531E+00  0.29033791324E+02 -0.66017081358E+01  0.29778970181E+02  0.00000000000E+00 0.  1.
         12    1    6    6    0    0 -0.51274846162E+01 -0.51502176589E+02  0.17727688057E+02  0.54708648455E+02  0.00000000000E+00 0. -1.
         -5    1    3    3    0  503 -0.16560240613E+00  0.62230098086E+02 -0.10456746012E+03  0.12177461250E+03  0.47000000000E+01 0.  1.
         11    1    4    4    0    0 -0.27877257932E+02  0.20858553541E+02 -0.32242874435E+02  0.47453384679E+02  0.00000000000E+00 0. -1.
        -12    1    4    4    0    0 -0.37281450754E+02 -0.47228451486E+02  0.40413388986E+01  0.60305601897E+02  0.00000000000E+00 0.  1.
</event>
<event>
12    1  0.1596842E-001  0.1868475E+03  0.7818608E-02  0.1161658E+00
         21   -1    0    0  501  502  0.00000000000E+00  0.00000000000E+00  0.16663054460E+03  0.16663054460E+03  0.00000000000E+00 0.  1.
         21   -1    0    0  502  503 -0.00000000000E+00 -0.00000000000E+00 -0.38401439539E+03  0.38401439539E+03  0.00000000000E+00 0.  1.
         -6    2    1    2    0  503  0.37165481509E+02 -0.56860252462E+02 -0.29533029119E+03  0.34947386271E+03  0.17406216850E+03 0.  0.
        -24    2    3    3    0    0 -0.95376771393E+00 -0.52828891435E+02 -0.68406700928E+02  0.11928755806E+03  0.82208535650E+02 0.  0.
          6    2    1    2  501    0 -0.37165481509E+02  0.56860252462E+02  0.77946440396E+02  0.20117107728E+03  0.17256822836E+03 0.  0.
         24    2    5    5    0    0  0.16010058120E+02  0.37002676744E+02  0.10629435031E+03  0.13754989115E+03  0.77433607684E+02 0.  0.
          5    1    5    5  501    0 -0.53175539629E+02  0.19857575718E+02 -0.28347909918E+02  0.63621186133E+02  0.47000000000E+01 0. -1.
        -11    1    6    6    0    0  0.37896083816E+02  0.26854923504E+02  0.24991522826E+02  0.52743495316E+02  0.00000000000E+00 0.  1.
         12    1    6    6    0    0 -0.21886025696E+02  0.10147753240E+02  0.81302827488E+02  0.84806395832E+02  0.00000000000E+00 0. -1.
         -5    1    3    3    0  503  0.38119249222E+02 -0.40313610271E+01 -0.22692359026E+03  0.23018630465E+03  0.47000000000E+01 0.  1.
         13    1    4    4    0    0  0.21677986918E+02  0.13492075351E+02 -0.29934542712E+02  0.39345241916E+02  0.00000000000E+00 0. -1.
        -14    1    4    4    0    0 -0.22631754631E+02 -0.66320966786E+02 -0.38472158216E+02  0.79942316147E+02  0.00000000000E+00 0.  1.
</event>
<event>
12    1  0.1596842E-001  0.2116249E+03  0.7818608E-02  0.1141373E+00
         21   -1    0    0  503  502  0.00000000000E+00  0.00000000000E+00  0.85226751061E+02  0.85226751061E+02  0.00000000000E+00 0.  1.
         21   -1    0    0  501  503 -0.00000000000E+00 -0.00000000000E+00 -0.54299890598E+03  0.54299890598E+03  0.00000000000E+00 0.  1.
          6    2    1    2  501    0  0.43017072993E+02  0.73765117981E+02 -0.15099604767E+03  0.25553720605E+03  0.18763713935E+03 0.  0.
         24    2    3    3    0    0  0.10317605115E+03  0.47892041745E+02 -0.11944575592E+03  0.18269470722E+03  0.78556490793E+02 0.  0.
         -6    2    1    2    0  502 -0.43017072993E+02 -0.73765117981E+02 -0.30677610725E+03  0.37268845099E+03  0.19363197133E+03 0.  0.
        -24    2    5    5    0    0 -0.16289931841E+02  0.41398913168E+02 -0.13864061947E+03  0.16709485577E+03  0.81977055123E+02 0.  0.
          5    1    3    3  501    0 -0.60158978155E+02  0.25873076236E+02 -0.31550291750E+02  0.72842498832E+02  0.47000000000E+01 0. -1.
        -11    1    4    4    0    0  0.71418033924E+02  0.55587696117E+02 -0.44322257214E+02  0.10077197038E+03  0.00000000000E+00 0.  1.
         12    1    4    4    0    0  0.31758017224E+02 -0.76956543711E+01 -0.75123498701E+02  0.81922736840E+02  0.00000000000E+00 0. -1.
         -5    1    5    5    0  502 -0.26727141152E+02 -0.11516403115E+03 -0.16813548778E+03  0.20559359522E+03  0.47000000000E+01 0.  1.
         13    1    6    6    0    0 -0.20554559259E+02  0.31544665735E+02 -0.14808409547E+03  0.15279546843E+03  0.00000000000E+00 0. -1.
        -14    1    6    6    0    0  0.42646274179E+01  0.98542474328E+01  0.94434759939E+01  0.14299387341E+02  0.00000000000E+00 0.  1.
</event>
<event>
12    1  0.1596842E-001  0.2037647E+03  0.7818608E-02  0.1146714E+00
         21   -1    0    0  503  502  0.00000000000E+00  0.00000000000E+00  0.14459079077E+04  0.14459079077E+04  0.00000000000E+00 0.  1.
         21   -1    0    0  501  503 -0.00000000000E+00 -0.00000000000E+00 -0.33615612050E+02  0.33615612050E+02  0.00000000000E+00 0. -1.
          6    2    1    2  501    0  0.41441954817E+02 -0.10102246809E+03  0.42229883634E+03  0.46888841043E+03  0.17203795971E+03 0.  0.
         24    2    3    3    0    0  0.21854994650E+02 -0.13486103550E+03  0.28872916001E+03  0.32963451969E+03  0.81420200435E+02 0.  0.
         -6    2    1    2    0  502 -0.41441954817E+02  0.10102246809E+03  0.98999345928E+03  0.10106351093E+04  0.17138640563E+03 0.  0.
        -24    2    5    5    0    0  0.36852635225E+02  0.33696968728E+02  0.34297240864E+03  0.35540912105E+03  0.78689057771E+02 0.  0.
          5    1    3    3  501    0  0.19586960166E+02  0.33838567412E+02  0.13356967633E+03  0.13925389074E+03  0.47000000000E+01 0. -1.
        -11    1    4    4    0    0  0.21875862123E+02 -0.45429528988E+02  0.18931204016E+03  0.19591182710E+03  0.00000000000E+00 0.  1.
         12    1    4    4    0    0 -0.20867472242E-01 -0.89431506514E+02  0.99417119853E+02  0.13372269259E+03  0.00000000000E+00 0. -1.
         -5    1    5    5    0  502 -0.78294590041E+02  0.67325499362E+02  0.64702105064E+03  0.65522598824E+03  0.47000000000E+01 0.  1.
         11    1    6    6    0    0 -0.86164475889E+01  0.35856187463E+01  0.13130337906E+01  0.94246426235E+01  0.00000000000E+00 0. -1.
        -12    1    6    6    0    0  0.45469082814E+02  0.30111349982E+02  0.34165937485E+03  0.34598447843E+03  0.00000000000E+00 0.  1.
</event>
<event>
12    1  0.1596842E-001  0.2139014E+03  0.7818608E-02  0.1139746E+00
         21   -1    0    0  501  502  0.00000000000E+00  0.00000000000E+00  0.79097641284E+03  0.79097641284E+03  0.00000000000E+00 0.  1.
         21   -1    0    0  502  503 -0.00000000000E+00 -0.00000000000E+00 -0.57195415637E+02  0.57195415637E+02  0.00000000000E+00 0.  1.
         -6    2    1    2    0  503  0.30566112538E+02  0.11578483888E+03  0.41857827974E+03  0.46724329006E+03  0.16961161425E+03 0.  0.
        -24    2    3    3    0    0  0.91891075841E+01  0.12418066472E+03  0.41892838873E+03  0.44379806009E+03  0.77139134440E+02 0.  0.
          6    2    1    2  501    0 -0.30566112538E+02 -0.11578483888E+03  0.31520271747E+03  0.38092853842E+03  0.17723820732E+03 0.  0.
         24    2    5    5    0    0 -0.23388545428E+02  0.90886519112E+01  0.82013707889E+02  0.11627005970E+03  0.78503826970E+02 0.  0.
          5    1    5    5  501    0 -0.71775671095E+01 -0.12487349079E+03  0.23318900958E+03  0.26465847872E+03  0.47000000000E+01 0. -1.
        -11    1    6    6    0    0 -0.13089798056E+02 -0.34657435644E+02  0.31212799964E+02  0.48442951398E+02  0.00000000000E+00 0.  1.
         12    1    6    6    0    0 -0.10298747373E+02  0.43746087556E+02  0.50800907925E+02  0.67827108297E+02  0.00000000000E+00 0. -1.
         -5    1    3    3    0  503  0.21377004954E+02 -0.83958258376E+01 -0.35010899555E+00  0.23445229975E+02  0.47000000000E+01 0.  1.
         13    1    4    4    0    0  0.43370240317E+02  0.65686978044E+02  0.22186347686E+03  0.23541274221E+03  0.00000000000E+00 0. -1.
        -14    1    4    4    0    0 -0.34181132733E+02  0.58493686673E+02  0.19706491187E+03  0.20838531788E+03  0.00000000000E+00 0.  1.
</event>
<event>
12    1  0.1596842E-001  0.2092586E+03  0.7818608E-02  0.1142287E+00
         21   -1    0    0  501  502  0.00000000000E+00  0.00000000000E+00  0.85103874585E+02  0.85103874585E+02  0.00000000000E+00 0.  1.
         21   -1    0    0  502  503 -0.00000000000E+00 -0.00000000000E+00 -0.72494581468E+03  0.72494581468E+03  0.00000000000E+00 0. -1.
         -6    2    1    2    0  503  0.61959164901E+02 -0.10116843212E+03 -0.53933346223E+03  0.57850649242E+03  0.17238094014E+03 0.  0.
        -24    2    3    3    0    0 -0.47437212134E+01 -0.24035443613E+02 -0.39106620701E+03  0.39849526527E+03  0.72563714989E+02 0.  0.
          6    2    1    2  501    0 -0.61959164901E+02  0.10116843212E+03 -0.10050847787E+03  0.23154319685E+03  0.17157012592E+03 0.  0.
         24    2    5    5    0    0  0.16469567309E+02  0.61186972368E+02 -0.10053048598E+03  0.14338610045E+03  0.80237790076E+02 0.  0.
          5    1    5    5  501    0 -0.78428732210E+02  0.39981459756E+02  0.22008111677E-01  0.88157096394E+02  0.47000000000E+01 0. -1.
        -11    1    6    6    0    0  0.33017602796E+02  0.43779297842E+02 -0.18436205584E+02  0.57850520225E+02  0.00000000000E+00 0.  1.
         12    1    6    6    0    0 -0.16548035486E+02  0.17407674526E+02 -0.82094280399E+02  0.85535580229E+02  0.00000000000E+00 0. -1.
         -5    1    3    3    0  503  0.66702886114E+02 -0.77132988511E+02 -0.14826725522E+03  0.18001122715E+03  0.47000000000E+01 0.  1.
         13    1    4    4    0    0  0.24527544279E+02 -0.75051612998E+01 -0.54278525728E+02  0.60034042257E+02  0.00000000000E+00 0. -1.
        -14    1    4    4    0    0 -0.29271265493E+02 -0.16530282313E+02 -0.33678768128E+03  0.33846122301E+03  0.00000000000E+00 0.  1.
</event>
<event>
12    1  0.1596842E-001  0.1944744E+03  0.7818608E-02  0.1154895E+00
         21   -1    0    0  503  502  0.00000000000E+00  0.00000000000E+00  0.14804742431E+03  0.14804742431E+03  0.00000000000E+00 0. -1.
         21   -1    0    0  501  503 -0.00000000000E+00 -0.00000000000E+00 -0.25619018428E+03  0.25619018428E+03  0.00000000000E+00 0. -1.
          6    2    1    2  501    0 -0.17575266010E+02 -0.87840653380E+02 -0.31343465525E+02  0.19514808283E+03  0.17051536892E+03 0.  0.
         24    2    3    3    0    0  0.42478689595E+01 -0.64166960391E+02  0.45108364317E+02  0.11205978494E+03  0.79919882838E+02 0.  0.
         -6    2    1    2    0  502  0.17575266010E+02  0.87840653380E+02 -0.76799294450E+02  0.20908952576E+03  0.17261352147E+03 0.  0.
        -24    2    5    5    0    0 -0.17505155765E+02  0.10087579293E+03 -0.10079963189E+03  0.16438318334E+03  0.79868073090E+02 0.  0.
          5    1    3    3  501    0 -0.21823134970E+02 -0.23673692989E+02 -0.76451829842E+02  0.83088297888E+02  0.47000000000E+01 0. -1.
        -13    1    4    4    0    0  0.26657282947E+02 -0.19681896273E+02 -0.12937250750E+02  0.35571902283E+02  0.00000000000E+00 0.  1.
         14    1    4    4    0    0 -0.22409413988E+02 -0.44485064118E+02  0.58045615067E+02  0.76487882657E+02  0.00000000000E+00 0. -1.
         -5    1    5    5    0  502  0.35080421776E+02 -0.13035139554E+02  0.24000337437E+02  0.44706342416E+02  0.47000000000E+01 0.  1.
         11    1    6    6    0    0  0.26845941091E+02  0.12028780079E+02 -0.14385835604E+02  0.32746730665E+02  0.00000000000E+00 0. -1.
        -12    1    6    6    0    0 -0.44351096856E+02  0.88847012855E+02 -0.86413796283E+02  0.13163645268E+03  0.00000000000E+00 0.  1.
</event>
<event>
12    1  0.1596842E-001  0.2711761E+03  0.7818608E-02  0.1101145E+00
         21   -1    0    0  503  502  0.00000000000E+00  0.00000000000E+00  0.20211486643E+03  0.20211486643E+03  0.00000000000E+00 0. -1.
         21   -1    0    0  501  503 -0.00000000000E+00 -0.00000000000E+00 -0.55711163332E+03  0.55711163332E+03  0.00000000000E+00 0.  1.
          6    2    1    2  501    0 -0.17800743978E+03  0.10109977565E+03  0.48175155618E+02  0.27542209123E+03  0.17784450924E+03 0.  0.
         24    2    3    3    0    0 -0.70323147157E+01  0.22134591100E+02  0.18314302632E+02  0.84682073661E+02  0.79348890007E+02 0.  0.
         -6    2    1    2    0  502  0.17800743978E+03 -0.10109977565E+03 -0.40317192250E+03  0.48380440852E+03  0.17207932285E+03 0.  0.
        -24    2    5    5    0    0  0.86113910034E+02 -0.11526609462E+03 -0.19344083034E+03  0.25433910303E+03  0.81037931966E+02 0.  0.
          5    1    3    3  501    0 -0.17097512506E+03  0.78965184550E+02  0.29860852986E+02  0.19074001757E+03  0.47000000000E+01 0. -1.
        -11    1    4    4    0    0  0.71284895427E+01  0.44641575991E+02 -0.95078624670E+01  0.46196159135E+02  0.00000000000E+00 0.  1.
         12    1    4    4    0    0 -0.14160804258E+02 -0.22506984891E+02  0.27822165099E+02  0.38485914526E+02  0.00000000000E+00 0. -1.
         -5    1    5    5    0  502  0.91893529744E+02  0.14166318969E+02 -0.20973109217E+03  0.22946530549E+03  0.47000000000E+01 0.  1.
         13    1    6    6    0    0  0.98876483735E+02 -0.10361705151E+03 -0.18775911650E+03  0.23614939812E+03  0.00000000000E+00 0. -1.
        -14    1    6    6    0    0 -0.12762573701E+02 -0.11649043105E+02 -0.56817138353E+01  0.18189704913E+02  0.00000000000E+00 0.  1.
</event>
<event>
12    1  0.1596842E-001  0.2314837E+03  0.7818608E-02  0.1125616E+00
         21   -1    0    0  501  502  0.00000000000E+00  0.00000000000E+00  0.26360853909E+03  0.26360853909E+03  0.00000000000E+00 0.  1.
         21   -1    0    0  502  503 -0.00000000000E+00 -0.00000000000E+00 -0.24314222484E+03  0.24314222484E+03  0.00000000000E+00 0. -1.
         -6    2    1    2    0  503  0.15596981493E+03  0.35254885198E+01 -0.92472679894E+02  0.24927069616E+03  0.17101365793E+03 0.  0.
        -24    2    3    3    0    0  0.16441997390E+03  0.45055907377E+02 -0.62248265001E+02  0.19700420467E+03  0.76627981542E+02 0.  0.
          6    2    1    2  501    0 -0.15596981493E+03 -0.35254885198E+01  0.11293899414E+03  0.25748006777E+03  0.17088521487E+03 0.  0.
         24    2    5    5    0    0 -0.17916042786E+03 -0.32158821046E+01  0.12273637448E+03  0.23186797988E+03  0.81177223820E+02 0.  0.
          5    1    5    5  501    0  0.23190612931E+02 -0.30960641519E+00 -0.97973803391E+01  0.25612087883E+02  0.47000000000E+01 0. -1.
        -13    1    6    6    0    0 -0.91119061936E+02 -0.36926518250E+02  0.38982812206E+02  0.10576346650E+03  0.00000000000E+00 0.  1.
         14    1    6    6    0    0 -0.88041365920E+02  0.33710636145E+02  0.83753562276E+02  0.12610451339E+03  0.00000000000E+00 0. -1.
         -5    1    3    3    0  503 -0.84501589738E+01 -0.41530418857E+02 -0.30224414893E+02  0.52266491491E+02  0.47000000000E+01 0.  1.
         11    1    4    4    0    0  0.13551814098E+03  0.15448618217E+02 -0.19972096172E+02  0.13785032087E+03  0.00000000000E+00 0. -1.
        -12    1    4    4    0    0  0.28901832923E+02  0.29607289159E+02 -0.42276168829E+02  0.59153883799E+02  0.00000000000E+00 0.  1.
</event>
<event>
12    1  0.1596842E-001  0.1813541E+03  0.7818608E-02  0.1167160E+00
         21   -1    0    0  501  502  0.00000000000E+00  0.00000000000E+00  0.12146274251E+03  0.12146274251E+03  0.00000000000E+00 0. -1.
         21   -1    0    0  502  503 -0.00000000000E+00 -0.00000000000E+00 -0.36351529494E+03  0.36351529494E+03  0.00000000000E+00 0. -1.
         -6    2    1    2    0  503  0.56446583325E+02 -0.15284635071E+02 -0.24683636201E+03  0.30629642517E+03  0.17166675165E+03 0.  0.
        -24    2    3    3    0    0  0.94764508725E+02  0.18207356776E+02 -0.20337552341E+03  0.23920759289E+03  0.80912601113E+02 0.  0.
          6    2    1    2  501    0 -0.56446583325E+02  0.15284635071E+02  0.47838095802E+01  0.17868161229E+03  0.16877321143E+03 0.  0.
         24    2    5    5    0    0 -0.27727673212E+02  0.65510782579E+02 -0.31496839734E+02  0.11022858309E+03  0.78088431418E+02 0.  0.
          5    1    5    5  501    0 -0.28718910113E+02 -0.50226147508E+02  0.36280649315E+02  0.68453029197E+02  0.47000000000E+01 0. -1.
        -11    1    6    6    0    0  0.22418989565E+02 -0.22938121744E+00 -0.11336880291E+02  0.25123466393E+02  0.00000000000E+00 0.  1.
         12    1    6    6    0    0 -0.50146662777E+02  0.65740163796E+02 -0.20159959444E+02  0.85105116699E+02  0.00000000000E+00 0. -1.
         -5    1    3    3    0  503 -0.38317925399E+02 -0.33491991847E+02 -0.43460838600E+02  0.67088832279E+02  0.47000000000E+01 0.  1.
         13    1    4    4    0    0  0.21891993035E+02 -0.22148640410E+02 -0.10884029504E+03  0.11320791252E+03  0.00000000000E+00 0. -1.
        -14    1    4    4    0    0  0.72872515690E+02  0.40355997186E+02 -0.94535228366E+02  0.12599968037E+03  0.00000000000E+00 0.  1.
</event>
<event>
12    1  0.1596842E-001  0.1947379E+03  0.7818608E-02  0.1154482E+00
         21   -1    0    0  503  502  0.00000000000E+00  0.00000000000E+00  0.75956753906E+03  0.75956753906E+03  0.00000000000E+00 0. -1.
         21   -1    0    0  501  503 -0.00000000000E+00 -0.00000000000E+00 -0.16365734423E+03  0.16365734423E+03  0.00000000000E+00 0. -1.
          6    2    1    2  501    0  0.87633756616E+02 -0.58122399564E+01 -0.87542842443E+02  0.21256962417E+03  0.17265178373E+03 0.  0.
         24    2    3    3    0    0  0.51125035473E+02  0.58338406203E+02 -0.13232422074E+02  0.10772535539E+03  0.73569805687E+02 0.  0.
         -6    2    1    2    0  502 -0.87633756616E+02  0.58122399564E+01  0.68345303727E+03  0.71065525912E+03  0.17380847425E+03 0.  0.
        -24    2    5    5    0    0 -0.12436345235E+03  0.66695624095E+00  0.44234125843E+03  0.46666238138E+03  0.81494025354E+02 0.  0.
          5    1    3    3  501    0  0.36508721143E+02 -0.64150646160E+02 -0.74310420368E+02  0.10484426879E+03  0.47000000000E+01 0. -1.
        -13    1    4    4    0    0  0.87641104618E+01 -0.52674560616E+01 -0.28072623335E+02  0.29876879129E+02  0.00000000000E+00 0.  1.
         14    1    4    4    0    0  0.42360925011E+02  0.63605862265E+02  0.14840201261E+02  0.77848476258E+02  0.00000000000E+00 0. -1.
         -5    1    5    5    0  502  0.36729695734E+02  0.51452837154E+01  0.24111177884E+03  0.24399287774E+03  0.47000000000E+01 0.  1.
         13    1    6    6    0    0 -0.28490775723E+02 -0.32169690329E+02  0.18858037428E+03  0.19341450525E+03  0.00000000000E+00 0. -1.
        -14    1    6    6    0    0 -0.95872676627E+02  0.32836646570E+02  0.25376088415E+03  0.27324787612E+03  0.00000000000E+00 0.  1.
</event>
<event>
12    1  0.1596842E-001  0.1811748E+03  0.7818608E-02  0.1167307E+00
         21   -1    0    0  501  502  0.00000000000E+00  0.00000000000E+00  0.23435539857E+03  0.23435539857E+03  0.00000000000E+00 0.  1.
         21   -1    0    0  502  503 -0.00000000000E+00 -0.00000000000E+00 -0.28294734038E+03  0.28294734038E+03  0.00000000000E+00 0.  1.
         -6    2    1    2    0  503  0.26637442924E+02  0.44716435351E+02 -0.20931080167E+03  0.27511505193E+03  0.17078690566E+03 0.  0.
        -24    2    3    3    0    0  0.21887310532E+02 -0.13134827386E+02 -0.19878373435E+03  0.21593531296E+03  0.80383507548E+02 0.  0.
          6    2    1    2  501    0 -0.26637442924E+02 -0.44716435351E+02  0.16071885987E+03  0.24218768702E+03  0.17353734720E+03 0.  0.
         24    2    5    5    0    0 -0.16486405882E+02 -0.80814255663E+02  0.16690944802E+03  0.20389265385E+03  0.83130649920E+02 0.  0.
          5    1    5    5  501    0 -0.10151037041E+02  0.36097820311E+02 -0.61905881538E+01  0.38295033176E+02  0.47000000000E+01 0. -1.
        -11    1    6    6    0    0 -0.20261670924E+02 -0.59188331238E+01  0.21791747061E+00  0.21109604028E+02  0.00000000000E+00 0.  1.
         12    1    6    6    0    0  0.37752650417E+01 -0.74895422539E+02  0.16669153055E+03  0.18278304982E+03  0.00000000000E+00 0. -1.
         -5    1    3    3    0  503  0.47501323921E+01  0.57851262737E+02 -0.10527067318E+02  0.59179738968E+02  0.47000000000E+01 0.  1.
         11    1    4    4    0    0 -0.14655341282E+02 -0.15322252847E+02 -0.96571418964E+01  0.23298301440E+02  0.00000000000E+00 0. -1.
        -12    1    4    4    0    0  0.36542651814E+02  0.21874254612E+01 -0.18912659246E+03  0.19263701152E+03  0.00000000000E+00 0.  1.
</event>
<event>
12    1  0.1596842E-001  0.1784542E+03  0.7818608E-02  0.1169874E+00
         21   -1    0    0  503  502  0.00000000000E+00  0.00000000000E+00  0.77185149213E+02  0.77185149213E+02  0.00000000000E+00 0.  1.
         21   -1    0    0  501  503 -0.00000000000E+00 -0.00000000000E+00 -0.18671308431E+04  0.18671308431E+04  0.00000000000E+00 0.  1.
          6    2    1    2  501    0  0.29115867159E+02  0.31479535452E+02 -0.17533141775E+04  0.17621409193E+04  0.17085467440E+03 0.  0.
         24    2    3    3    0    0  0.60593741101E+02  0.85667976602E+01 -0.65531672018E+03  0.66344334659E+03  0.83498975524E+02 0.  0.
         -6    2    1    2    0  502 -0.29115867159E+02 -0.31479535452E+02 -0.36631516415E+02  0.18217507299E+03  0.17322584781E+03 0.  0.
        -24    2    5    5    0    0  0.10433885061E+02 -0.76593908119E+02  0.34157684157E+01  0.10988838995E+03  0.78027546765E+02 0.  0.
          5    1    3    3  501    0 -0.31477873942E+02  0.22912737791E+02 -0.10979974573E+04  0.10986975727E+04  0.47000000000E+01 0. -1.
        -11    1    4    4    0    0 -0.11351733842E+01 -0.20705598122E+02 -0.34832729882E+03  0.34894400341E+03  0.00000000000E+00 0.  1.
         12    1    4    4    0    0  0.61728914485E+02  0.29272395782E+02 -0.30698942135E+03  0.31449934318E+03  0.00000000000E+00 0. -1.
         -5    1    5    5    0  502 -0.39549752220E+02  0.45114372667E+02 -0.40047284830E+02  0.72286683034E+02  0.47000000000E+01 0.  1.
         11    1    6    6    0    0  0.13287829007E+02 -0.18291922370E+01 -0.26189771922E+02  0.29424759936E+02  0.00000000000E+00 0. -1.
        -12    1    6    6    0    0 -0.28539439456E+01 -0.74764715882E+02  0.29605540337E+02  0.80463630018E+02  0.00000000000E+00 0.  1.
</event>
<event>
12    1  0.1596842E-001  0.2404386E+03  0.7818608E-02  0.1119568E+00
         21   -1    0    0  503  502  0.00000000000E+00  0.00000000000E+00  0.99204277897E+03  0.99204277897E+03  0.00000000000E+00 0.  1.
         21   -1    0    0  501  503 -0.00000000000E+00 -0.00000000000E+00 -0.40475710498E+03  0.40475710498E+03  0.00000000000E+00 0.  1.
          6    2    1    2  501    0  0.16772699107E+03 -0.30496769491E+01 -0.35265527246E+03  0.42659386522E+03  0.17168267411E+03 0.  0.
         24    2    3    3    0    0  0.15815518624E+03  0.51043997237E+02 -0.28456694434E+03  0.33898190564E+03  0.79447051258E+02 0.  0.
         -6    2    1    2    0  502 -0.16772699107E+03  0.30496769491E+01  0.93994094644E+03  0.97020601873E+03  0.17224718260E+03 0.  0.
        -24    2    5    5    0    0 -0.13921411702E+03 -0.26218801329E+02  0.89320393702E+03  0.90794796015E+03  0.80549545769E+02 0.  0.
          5    1    3    3  501    0  0.95718048211E+01 -0.54093674186E+02 -0.68088328125E+02  0.87611959580E+02  0.47000000000E+01 0. -1.
        -13    1    4    4    0    0  0.15977259538E+03  0.52138012066E+02 -0.23252502622E+03  0.28690336763E+03  0.00000000000E+00 0.  1.
         14    1    4    4    0    0 -0.16174091335E+01 -0.10940148285E+01 -0.52041918115E+02  0.52078538016E+02  0.00000000000E+00 0. -1.
         -5    1    5    5    0  502 -0.28512874049E+02  0.29268478278E+02  0.46737009425E+02  0.62258058573E+02  0.47000000000E+01 0.  1.
         11    1    6    6    0    0 -0.30023842340E+02  0.18791152582E+02  0.36432451171E+03  0.36604219478E+03  0.00000000000E+00 0. -1.
        -12    1    6    6    0    0 -0.10919027468E+03 -0.45009953911E+02  0.52887942531E+03  0.54190576538E+03  0.00000000000E+00 0.  1.
</event>
<event>
12    1  0.1596842E-001  0.4211728E+03  0.7818608E-02  0.1036704E+00
         21   -1    0    0  501  502  0.00000000000E+00  0.00000000000E+00  0.52948706408E+03  0.52948706408E+03  0.00000000000E+00 0. -1.
         21   -1    0    0  502  503 -0.00000000000E+00 -0.00000000000E+00 -0.45914677911E+03  0.45914677911E+03  0.00000000000E+00 0.  1.
         -6    2    1    2    0  503  0.37336708016E+03 -0.90074279784E+02 -0.22204329638E+03  0.47592081222E+03  0.17228186676E+03 0.  0.
        -24    2    3    3    0    0  0.82854735337E+02 -0.62199379157E+02 -0.69973653022E+02  0.14679819220E+03  0.76939763326E+02 0.  0.
          6    2    1    2  501    0 -0.37336708016E+03  0.90074279784E+02  0.29238358135E+03  0.51271303098E+03  0.17282980376E+03 0.  0.
         24    2    5    5    0    0 -0.26941787565E+03  0.12888979117E+03  0.22492451209E+03  0.38277113217E+03  0.82000813964E+02 0.  0.
          5    1    5    5  501    0 -0.10394920450E+03 -0.38815511386E+02  0.67459069262E+02  0.12994189881E+03  0.47000000000E+01 0. -1.
        -11    1    6    6    0    0 -0.26244615392E+03  0.10219636676E+03  0.19845616182E+03  0.34453871952E+03  0.00000000000E+00 0.  1.
         12    1    6    6    0    0 -0.69717217358E+01  0.26693424405E+02  0.26468350273E+02  0.38232412645E+02  0.00000000000E+00 0. -1.
         -5    1    3    3    0  503  0.29051234482E+03 -0.27874900627E+02 -0.15206964336E+03  0.32912262002E+03  0.47000000000E+01 0.  1.
         13    1    4    4    0    0  0.33040247574E+02  0.15049379241E+02 -0.27479732446E+02  0.45533256754E+02  0.00000000000E+00 0. -1.
        -14    1    4    4    0    0  0.49814487763E+02 -0.77248758398E+02 -0.42493920576E+02  0.10126493545E+03  0.00000000000E+00 0.  1.
</event>
<event>
12    1  0.1596842E-001  0.1879529E+03  0.7818608E-02  0.1160930E+00
         21   -1    0    0  503  502  0.00000000000E+00  0.00000000000E+00  0.34760461605E+02  0.34760461605E+02  0.00000000000E+00 0. -1.
         21   -1    0    0  501  503 -0.00000000000E+00 -0.00000000000E+00 -0.10777878984E+04  0.10777878984E+04  0.00000000000E+00 0. -1.
          6    2    1    2  501    0  0.72162703235E+02 -0.10639165598E+02 -0.66556149046E+03  0.69087689026E+03  0.17034709372E+03 0.  0.
         24    2    3    3    0    0  0.73639229116E+02  0.11190977598E+02 -0.65626194200E+03  0.66664247502E+03  0.90468110078E+02 0.  0.
         -6    2    1    2    0  502 -0.72162703235E+02  0.10639165598E+02 -0.37746594638E+03  0.42167146979E+03  0.17322136176E+03 0.  0.
        -24    2    5    5    0    0 -0.16937635686E+02  0.68271917084E+02 -0.18991488496E+03  0.21778710852E+03  0.80097583871E+02 0.  0.
          5    1    3    3  501    0 -0.14765258810E+01 -0.21830143197E+02 -0.92995484595E+01  0.24234415244E+02  0.47000000000E+01 0. -1.
        -11    1    4    4    0    0 -0.12653192423E+02 -0.69817367043E+01 -0.27232609866E+03  0.27270928099E+03  0.00000000000E+00 0.  1.
         12    1    4    4    0    0  0.86292421538E+02  0.18172714302E+02 -0.38393584334E+03  0.39393319403E+03  0.00000000000E+00 0. -1.
         -5    1    5    5    0  502 -0.55225067549E+02 -0.57632751485E+02 -0.18755106142E+03  0.20388436127E+03  0.47000000000E+01 0.  1.
         11    1    6    6    0    0 -0.15541346140E+02  0.64785977970E+02 -0.19798058743E+03  0.20889008923E+03  0.00000000000E+00 0. -1.
        -12    1    6    6    0    0 -0.13962895457E+01  0.34859391135E+01  0.80657024632E+01  0.88970192887E+01  0.00000000000E+00 0.  1.
</event>
<event>
12    1  0.1596842E-001  0.1980912E+03  0.7818608E-02  0.1151659E+00
         21   -1    0    0  501  502  0.00000000000E+00  0.00000000000E+00  0.24404045781E+03  0.24404045781E+03  0.00000000000E+00 0. -1.
         21   -1    0    0  502  503 -0.00000000000E+00 -0.00000000000E+00 -0.16074607749E+03  0.16074607749E+03  0.00000000000E+00 0. -1.
         -6    2    1    2    0  503 -0.94901232929E+02 -0.13534374608E+02  0.24869402698E+02  0.19825903012E+03  0.17175195057E+03 0.  0.
        -24    2    3    3    0    0 -0.70745530565E+02 -0.75173141103E+02  0.14636356564E+02  0.13110517152E+03  0.79488438320E+02 0.  0.
          6    2    1    2  501    0  0.94901232929E+02  0.13534374608E+02  0.58424977625E+02  0.20652750519E+03  0.17335140346E+03 0.  0.
         24    2    5    5    0    0  0.43098553651E+02  0.46471270016E+02 -0.22637247906E+02  0.10473589911E+03  0.80250229324E+02 0.  0.
          5    1    5    5  501    0  0.51802679278E+02 -0.32936895409E+02  0.81062225531E+02  0.10179160608E+03  0.47000000000E+01 0. -1.
        -13    1    6    6    0    0 -0.67282285207E+01 -0.18592921967E+02 -0.87230931873E+01  0.21611528429E+02  0.00000000000E+00 0.  1.
         14    1    6    6    0    0  0.49826782172E+02  0.65064191984E+02 -0.13914154719E+02  0.83124370684E+02  0.00000000000E+00 0. -1.
         -5    1    3    3    0  503 -0.24155702364E+02  0.61638766495E+02  0.10233046134E+02  0.67153858600E+02  0.47000000000E+01 0.  1.
         13    1    4    4    0    0 -0.86950130993E+02 -0.51041594175E+02  0.15586660097E+02  0.10202212304E+03  0.00000000000E+00 0. -1.
        -14    1    4    4    0    0  0.16204600428E+02 -0.24131546928E+02 -0.95030353332E+00  0.29083048481E+02  0.00000000000E+00 0.  1.
</event>
<event>
12    1  0.1596842E-001  0.1810576E+03  0.7818608E-02  0.1166889E+00
         21   -1    0    0  503  502  0.00000000000E+00  0.00000000000E+00  0.37854436311E+03  0.37854436311E+03  0.00000000000E+00 0.  1.
         21   -1    0    0  501  503 -0.00000000000E+00 -0.00000000000E+00 -0.33629286797E+03  0.33629286797E+03  0.00000000000E+00 0.  1.
          6    2    1    2  501    0  0.50229560934E+02  0.22014283660E+02 -0.28698979828E+03  0.33909569742E+03  0.17209041291E+03 0.  0.
         24    2    3    3    0    0  0.80986860000E+02  0.53374891702E+02 -0.25041322369E+03  0.28174210127E+03  0.85229563378E+02 0.  0.
         -6    2    1    2    0  502 -0.50229560934E+02 -0.22014283660E+02  0.32924129343E+03  0.37574153365E+03  0.17255211774E+03 0.  0.
        -24    2    5    5    0    0  0.16670323031E+02 -0.20716804345E+02  0.27774812348E+03  0.29117845377E+03  0.83269359280E+02 0.  0.
          5    1    3    3  501    0 -0.30757299066E+02 -0.31360608042E+02 -0.36576574595E+02  0.57353596153E+02  0.47000000000E+01 0. -1.
        -11    1    4    4    0    0  0.55216564605E+02  0.37366901258E+02 -0.62468011386E+02  0.91364143749E+02  0.00000000000E+00 0.  1.
         12    1    4    4    0    0  0.25770295395E+02  0.16007990444E+02 -0.18794521230E+03  0.19037795752E+03  0.00000000000E+00 0. -1.
         -5    1    5    5    0  502 -0.66899883965E+02 -0.12974793156E+01  0.51493169956E+02  0.84563079882E+02  0.47000000000E+01 0.  1.
         11    1    6    6    0    0  0.11616506502E+02  0.20327306652E+02  0.22061343169E+02  0.32169014306E+02  0.00000000000E+00 0. -1.
        -12    1    6    6    0    0  0.50538165290E+01 -0.41044110996E+02  0.25568678031E+03  0.25900943947E+03  0.00000000000E+00 0.  1.
</event>
<event>
12    1  0.1596842E-001  0.1867512E+03  0.7818608E-02  0.1162189E+00
         21   -1    0    0  503  502  0.00000000000E+00  0.00000000000E+00  0.58227934693E+03  0.58227934693E+03  0.00000000000E+00 0. -1.
         21   -1    0    0  501  503 -0.00000000000E+00 -0.00000000000E+00 -0.61109549926E+02  0.61109549926E+02  0.00000000000E+00 0. -1.
          6    2    1    2  501    0  0.43179897580E+02 -0.46508364171E+02  0.20092427051E+03  0.27431105798E+03  0.17563730399E+03 0.  0.
         24    2    3    3    0    0 -0.21711760115E+02  0.90403527753E+01  0.15707657092E+03  0.17817938810E+03  0.80757146475E+02 0.  0.
         -6    2    1    2    0  502 -0.43179897580E+02  0.46508364171E+02  0.32024552649E+03  0.36907783888E+03  0.17214448124E+03 0.  0.
        -24    2    5    5    0    0  0.21792346256E+02  0.77870828271E+02  0.25270712855E+03  0.27014088007E+03  0.50758546180E+02 0.  0.
          5    1    3    3  501    0  0.64891657694E+02 -0.55548716947E+02  0.43847699592E+02  0.96131669871E+02  0.47000000000E+01 0. -1.
        -13    1    4    4    0    0  0.28211946238E+01  0.34423456291E+02  0.28300867271E+02  0.44652800253E+02  0.00000000000E+00 0.  1.
         14    1    4    4    0    0 -0.24532954739E+02 -0.25383103516E+02  0.12877570365E+03  0.13352658785E+03  0.00000000000E+00 0. -1.
         -5    1    5    5    0  502 -0.64972243835E+02 -0.31362464099E+02  0.67538397934E+02  0.98936958811E+02  0.47000000000E+01 0.  1.
         11    1    6    6    0    0 -0.10206286318E+02  0.47494814692E+02  0.16437063068E+03  0.17139903715E+03  0.00000000000E+00 0. -1.
        -12    1    6    6    0    0  0.31998632573E+02  0.30376013579E+02  0.88336497870E+02  0.98741842922E+02  0.00000000000E+00 0.  1.
</event>
<event>
12    1  0.1596842E-001  0.1972849E+03  0.7818608E-02  0.1152125E+00
         21   -1    0    0  503  502  0.00000000000E+00  0.00000000000E+00  0.11822639983E+03  0.11822639983E+03  0.00000000000E+00 0.  1.
         21   -1    0    0  501  503 -0.00000000000E+00 -0.00000000000E+00 -0.43314313714E+03  0.43314313714E+03  0.00000000000E+00 0. -1.
          6    2    1    2  501    0  0.86427238548E+02 -0.42013096810E+02 -0.29277495465E+03  0.35284599436E+03  0.17189634609E+03 0.  0.
         24    2    3    3    0    0  0.60969264954E+02  0.25401589136E+02 -0.89421596601E+02  0.13705089124E+03  0.80151312229E+02 0.  0.
         -6    2    1    2    0  502 -0.86427238548E+02  0.42013096810E+02 -0.22141782661E+02  0.19852354261E+03  0.17229791225E+03 0.  0.
        -24    2    5    5    0    0  0.50483015265E+01 -0.25406858886E+01 -0.47918501592E+02  0.93455263747E+02  0.80036011233E+02 0.  0.
          5    1    3    3  501    0  0.25457973594E+02 -0.67414685946E+02 -0.20335335805E+03  0.21579510312E+03  0.47000000000E+01 0. -1.
        -11    1    4    4    0    0  0.18662882040E+02  0.24386184071E+02  0.72238566797E+01  0.31546366588E+02  0.00000000000E+00 0.  1.
         12    1    4    4    0    0  0.42306382914E+02  0.10154050646E+01 -0.96645453281E+02  0.10550452465E+03  0.00000000000E+00 0. -1.
         -5    1    5    5    0  502 -0.91475540074E+02  0.44553782699E+02  0.25776718931E+02  0.10506827886E+03  0.47000000000E+01 0.  1.
         13    1    6    6    0    0  0.32461463940E+02  0.22435573352E+02 -0.38637847430E+02  0.55226667895E+02  0.00000000000E+00 0. -1.
        -14    1    6    6    0    0 -0.27413162413E+02 -0.24976259240E+02 -0.92806541623E+01  0.38228595852E+02  0.00000000000E+00 0.  1.
</event>
<event>
12    1  0.1596842E-001  0.1789997E+03  0.7818608E-02  0.1169305E+00
         21   -1    0    0  503  502  0.00000000000E+00  0.00000000000E+00  0.76613924111E+03  0.76613924111E+03  0.00000000000E+00 0. -1.
         21   -1    0    0  501  503 -0.00000000000E+00 -0.00000000000E+00 -0.41455860834E+02  0.41455860834E+02  0.00000000000E+00 0. -1.
          6    2    1    2  501    0 -0.12303211215E+02  0.45704419386E+02  0.34119223300E+03  0.38529604198E+03  0.17262861045E+03 0.  0.
         24    2    3    3    0    0  0.46474896492E+02 -0.67517669640E+01  0.12273403045E+03  0.15301906573E+03  0.78394450607E+02 0.  0.
         -6    2    1    2    0  502  0.12303211215E+02 -0.45704419386E+02  0.38349114727E+03  0.42229905996E+03  0.17038419249E+03 0.  0.
        -24    2    5    5    0    0  0.68133679038E+02 -0.39899153019E+02  0.31357137876E+03  0.33251261174E+03  0.77482170598E+02 0.  0.
          5    1    3    3  501    0 -0.58778107707E+02  0.52456186350E+02  0.21845820256E+03  0.23227697625E+03  0.47000000000E+01 0. -1.
        -11    1    4    4    0    0  0.47760185076E+02  0.21429153459E+02  0.40814299967E+02  0.66378091101E+02  0.00000000000E+00 0.  1.
         12    1    4    4    0    0 -0.12852885840E+01 -0.28180920423E+02  0.81919730479E+02  0.86640974628E+02  0.00000000000E+00 0. -1.
         -5    1    5    5    0  502 -0.55830467823E+02 -0.58052663667E+01  0.69919768511E+02  0.89786448218E+02  0.47000000000E+01 0.  1.
         13    1    6    6    0    0  0.21287064051E+02  0.20264857826E+01  0.12127858038E+02  0.24583138147E+02  0.00000000000E+00 0. -1.
        -14    1    6    6    0    0  0.46846614987E+02 -0.41925638801E+02  0.30144352072E+03  0.30792947360E+03  0.00000000000E+00 0.  1.
</event>
<event>
12    1  0.1596842E-001  0.1855396E+03  0.7818608E-02  0.1162701E+00
         21   -1    0    0  503  502  0.00000000000E+00  0.00000000000E+00  0.11807018825E+03  0.11807018825E+03  0.00000000000E+00 0. -1.
         21   -1    0    0  501  503 -0.00000000000E+00 -0.00000000000E+00 -0.35794523717E+03  0.35794523717E+03  0.00000000000E+00 0. -1.
          6    2    1    2  501    0  0.28079926228E+02  0.61988027566E+02 -0.16816677493E+02  0.18630013222E+03  0.17260921414E+03 0.  0.
         24    2    3    3    0    0 -0.18653207620E+02 -0.20692862188E+02 -0.28790088340E+02  0.90458763822E+02  0.81103526837E+02 0.  0.
         -6    2    1    2    0  502 -0.28079926228E+02 -0.61988027566E+02 -0.22305837143E+03  0.28971529320E+03  0.17189798204E+03 0.  0.
        -24    2    5    5    0    0  0.50947900524E+02 -0.36701924937E+02 -0.12679021701E+03  0.16253655306E+03  0.79997825530E+02 0.  0.
          5    1    3    3  501    0  0.46733133848E+02  0.82680889754E+02  0.11973410847E+02  0.95841368401E+02  0.47000000000E+01 0. -1.
        -13    1    4    4    0    0 -0.16321027223E+02  0.20748619714E+02 -0.39576666079E+02  0.47573034879E+02  0.00000000000E+00 0.  1.
         14    1    4    4    0    0 -0.23321803965E+01 -0.41441481902E+02  0.10786577739E+02  0.42885728943E+02  0.00000000000E+00 0. -1.
         -5    1    5    5    0  502 -0.79027826752E+02 -0.25286102629E+02 -0.96268154423E+02  0.12717874014E+03  0.47000000000E+01 0.  1.
         13    1    6    6    0    0  0.69785175218E+01 -0.50789207625E+02 -0.43192390937E+02  0.67036004899E+02  0.00000000000E+00 0. -1.
        -14    1    6    6    0    0  0.43969383002E+02  0.14087282688E+02 -0.83597826069E+02  0.95500548159E+02  0.00000000000E+00 0.  1.
</event>
<event>
12    1  0.1596842E-001  0.1714095E+03  0.7818608E-02  0.1176465E+00
         21   -1    0    0  501  502  0.00000000000E+00  0.00000000000E+00  0.39424820449E+02  0.39424820449E+02  0.00000000000E+00 0. -1.
         21   -1    0    0  502  503 -0.00000000000E+00 -0.00000000000E+00 -0.78701925676E+03  0.78701925676E+03  0.00000000000E+00 0. -1.
         -6    2    1    2    0  503 -0.11580452195E+02  0.65343605449E+00 -0.47019098508E+03  0.50035530691E+03  0.17070833855E+03 0.  0.
        -24    2    3    3    0    0 -0.87671266705E+01  0.65447440744E+02 -0.24873316018E+03  0.26954838315E+03  0.80174284389E+02 0.  0.
          6    2    1    2  501    0  0.11580452195E+02 -0.65343605449E+00 -0.27740345122E+03  0.32608877029E+03  0.17101660010E+03 0.  0.
         24    2    5    5    0    0  0.33356395664E+02 -0.40182919554E+02 -0.26045812963E+03  0.27765318726E+03  0.80780808047E+02 0.  0.
          5    1    5    5  501    0 -0.21775943470E+02  0.39529483500E+02 -0.16945321591E+02  0.48435583031E+02  0.47000000000E+01 0. -1.
        -11    1    6    6    0    0 -0.15389260446E+02 -0.42716416022E+02 -0.15368974703E+03  0.16025623195E+03  0.00000000000E+00 0.  1.
         12    1    6    6    0    0  0.48745656110E+02  0.25334964680E+01 -0.10676838260E+03  0.11739695531E+03  0.00000000000E+00 0. -1.
         -5    1    3    3    0  503 -0.28133255241E+01 -0.64794004689E+02 -0.22145782491E+03  0.23080692376E+03  0.47000000000E+01 0.  1.
         11    1    4    4    0    0  0.65249217770E+01 -0.16317792762E+02 -0.22787180885E+02  0.28776736742E+02  0.00000000000E+00 0. -1.
        -12    1    4    4    0    0 -0.15292048447E+02  0.81765233506E+02 -0.22594597929E+03  0.24077164641E+03  0.00000000000E+00 0.  1.
</event>
<event>
12    1  0.1596842E-001  0.2171476E+03  0.7818608E-02  0.1136118E+00
         21   -1    0    0  501  502  0.00000000000E+00  0.00000000000E+00  0.33247651922E+03  0.33247651922E+03  0.00000000000E+00 0.  1.
         21   -1    0    0  502  503 -0.00000000000E+00 -0.00000000000E+00 -0.14459582680E+03  0.14459582680E+03  0.00000000000E+00 0. -1.
         -6    2    1    2    0  503  0.29526644809E+02 -0.13038934689E+03  0.12866225917E+03  0.25199480155E+03  0.17051157889E+03 0.  0.
        -24    2    3    3    0    0  0.38127360658E+02 -0.13510555728E+03  0.15477094879E+03  0.22371108490E+03  0.79908670861E+02 0.  0.
          6    2    1    2  501    0 -0.29526644809E+02  0.13038934689E+03  0.59218433255E+02  0.22507754447E+03  0.17111362789E+03 0.  0.
         24    2    5    5    0    0 -0.73279178803E+02  0.57247026051E+02  0.66370601005E+02  0.13941934677E+03  0.79910184201E+02 0.  0.
          5    1    5    5  501    0  0.43752533994E+02  0.73142320841E+02 -0.71521677500E+01  0.85658197695E+02  0.47000000000E+01 0. -1.
        -11    1    6    6    0    0 -0.10417985207E+02 -0.65790010810E+01  0.45901684985E+02  0.47526648898E+02  0.00000000000E+00 0.  1.
         12    1    6    6    0    0 -0.62861193596E+02  0.63826027132E+02  0.20468916020E+02  0.91892697875E+02  0.00000000000E+00 0. -1.
         -5    1    3    3    0  503 -0.86007158497E+01  0.47162103927E+01 -0.26108689620E+02  0.28283716645E+02  0.47000000000E+01 0.  1.
         13    1    4    4    0    0 -0.13852115426E+02 -0.19142735673E+02  0.22907718999E+00  0.23630021312E+02  0.00000000000E+00 0. -1.
        -14    1    4    4    0    0  0.51979476084E+02 -0.11596282161E+03  0.15454187160E+03  0.20008106359E+03  0.00000000000E+00 0.  1.
</event>
<event>
12    1  0.1596842E-001  0.2132031E+03  0.7818608E-02  0.1139165E+00
         21   -1    0    0  503  502  0.00000000000E+00  0.00000000000E+00  0.39226598765E+02  0.39226598765E+02  0.00000000000E+00 0. -1.
         21   -1    0    0  501  503 -0.00000000000E+00 -0.00000000000E+00 -0.17680543863E+04  0.17680543863E+04  0.00000000000E+00 0.  1.
          6    2    1    2  501    0 -0.99905571106E+02 -0.72994679656E+02 -0.13969739525E+04  0.14131495966E+04  0.17362664531E+03 0.  0.
         24    2    3    3    0    0 -0.92349371710E+02 -0.10933467161E+03 -0.90256353365E+03  0.91732559208E+03  0.79892632673E+02 0.  0.
         -6    2    1    2    0  502  0.99905571106E+02  0.72994679656E+02 -0.33185383504E+03  0.39413138849E+03  0.17292552491E+03 0.  0.
        -24    2    5    5    0    0 -0.13856065590E+02  0.19528350638E+02 -0.16950444698E+03  0.18875424243E+03  0.79517667562E+02 0.  0.
          5    1    3    3  501    0 -0.75561993958E+01  0.36339991951E+02 -0.49441041889E+03  0.49582400453E+03  0.47000000000E+01 0. -1.
        -11    1    4    4    0    0 -0.14565475871E+02 -0.50083396586E+02 -0.51432636652E+03  0.51696432276E+03  0.00000000000E+00 0.  1.
         12    1    4    4    0    0 -0.77783895839E+02 -0.59251275021E+02 -0.38823716712E+03  0.40036126933E+03  0.00000000000E+00 0. -1.
         -5    1    5    5    0  502  0.11376163670E+03  0.53466329019E+02 -0.16234938806E+03  0.20537714606E+03  0.47000000000E+01 0.  1.
         13    1    6    6    0    0 -0.13008882475E+02  0.49147943763E+02 -0.83191276673E+02  0.97496358464E+02  0.00000000000E+00 0. -1.
        -14    1    6    6    0    0 -0.84718311541E+00 -0.29619593125E+02 -0.86313170311E+02  0.91257883962E+02  0.00000000000E+00 0.  1.
</event>
<event>
12    1  0.1596842E-001  0.1794095E+03  0.7818608E-02  0.1170744E+00
         21   -1    0    0  503  502  0.00000000000E+00  0.00000000000E+00  0.89957056379E+03  0.89957056379E+03  0.00000000000E+00 0.  1.
         21   -1    0    0  501  503 -0.00000000000E+00 -0.00000000000E+00 -0.36085655697E+02  0.36085655697E+02  0.00000000000E+00 0.  1.
          6    2    1    2  501    0 -0.39980961711E+02  0.24187431937E+02  0.30611982905E+03  0.35012773466E+03  0.16339085553E+03 0.  0.
         24    2    3    3    0    0 -0.83851892193E+02  0.36942100331E+02  0.24718828747E+03  0.27541256417E+03  0.79713063168E+02 0.  0.
         -6    2    1    2    0  502  0.39980961711E+02 -0.24187431937E+02  0.55736507904E+03  0.58552848483E+03  0.17321739535E+03 0.  0.
        -24    2    5    5    0    0  0.65075466112E+02 -0.20485600191E+01  0.53524095786E+03  0.54513751382E+03  0.80330648700E+02 0.  0.
          5    1    3    3  501    0  0.43870930483E+02 -0.12754668393E+02  0.58931541585E+02  0.74715170487E+02  0.47000000000E+01 0. -1.
        -11    1    4    4    0    0 -0.24493378633E+02  0.44687310727E+02  0.59142831276E+02  0.78068917170E+02  0.00000000000E+00 0.  1.
         12    1    4    4    0    0 -0.59358513560E+02 -0.77452103959E+01  0.18804545619E+03  0.19734364700E+03  0.00000000000E+00 0. -1.
         -5    1    5    5    0  502 -0.25094504401E+02 -0.22138871918E+02  0.22124121183E+02  0.40390971009E+02  0.47000000000E+01 0.  1.
         13    1    6    6    0    0  0.10104603702E+02  0.32490863776E+02  0.11557339601E+03  0.12047808560E+03  0.00000000000E+00 0. -1.
        -14    1    6    6    0    0  0.54970862410E+02 -0.34539423795E+02  0.41966756185E+03  0.42465942823E+03  0.00000000000E+00 0.  1.
</event>
<event>
12    1  0.1596842E-001  0.1950067E+03  0.7818608E-02  0.1154126E+00
         21   -1    0    0  503  502  0.00000000000E+00  0.00000000000E+00  0.22198773187E+03  0.22198773187E+03  0.00000000000E+00 0. -1.
         21   -1    0    0  501  503 -0.00000000000E+00 -0.00000000000E+00 -0.18482977958E+03  0.18482977958E+03  0.00000000000E+00 0. -1.
          6    2    1    2  501    0  0.88273188320E+02 -0.28269265488E+02  0.74471366239E+02  0.20874287372E+03  0.17157009003E+03 0.  0.
         24    2    3    3    0    0  0.32248643238E+02  0.48316642741E+02  0.51120410513E+02  0.11090878905E+03  0.79454327515E+02 0.  0.
         -6    2    1    2    0  502 -0.88273188320E+02  0.28269265488E+02 -0.37313413943E+02  0.19807463773E+03  0.17102620882E+03 0.  0.
        -24    2    5    5    0    0 -0.11189409908E+03  0.64205173684E+02 -0.30312748759E+02  0.15425185557E+03  0.78944147813E+02 0.  0.
          5    1    3    3  501    0  0.56024545082E+02 -0.76585908229E+02  0.23350955726E+02  0.97834084675E+02  0.47000000000E+01 0. -1.
        -11    1    4    4    0    0 -0.25698436429E+02  0.67968092409E+01  0.19262062101E+02  0.32827325312E+02  0.00000000000E+00 0.  1.
         12    1    4    4    0    0  0.57947079667E+02  0.41519833500E+02  0.31858348413E+02  0.78081463738E+02  0.00000000000E+00 0. -1.
         -5    1    5    5    0  502  0.23620910757E+02 -0.35935908196E+02 -0.70006651839E+01  0.43822782156E+02  0.47000000000E+01 0.  1.
         11    1    6    6    0    0 -0.79744377567E+02  0.76042500713E+02 -0.42192640111E+02  0.11799087485E+03  0.00000000000E+00 0. -1.
        -12    1    6    6    0    0 -0.32149721511E+02 -0.11837327029E+02  0.11879891352E+02  0.36260980722E+02  0.00000000000E+00 0.  1.
</event>
<event>
12    1  0.1596842E-001  0.1841089E+03  0.7818608E-02  0.1166263E+00
         21   -1    0    0  501  502  0.00000000000E+00  0.00000000000E+00  0.13627344538E+03  0.13627344538E+03  0.00000000000E+00 0.  1.
         21   -1    0    0  502  503 -0.00000000000E+00 -0.00000000000E+00 -0.31401232424E+03  0.31401232424E+03  0.00000000000E+00 0.  1.
         -6    2    1    2    0  503  0.58824407894E+02  0.24493705645E+02 -0.19949308626E+03  0.26489605850E+03  0.16221028871E+03 0.  0.
        -24    2    3    3    0    0 -0.75950460239E+01  0.55783250930E+02 -0.13733050864E+03  0.16857962398E+03  0.79937257954E+02 0.  0.
          6    2    1    2  501    0 -0.58824407894E+02 -0.24493705645E+02  0.21754207398E+02  0.18538971113E+03  0.17273056149E+03 0.  0.
         24    2    5    5    0    0 -0.15692888245E+02 -0.79240806675E+02  0.26508198257E+02  0.11537354522E+03  0.77993577804E+02 0.  0.
          5    1    5    5  501    0 -0.43131519649E+02  0.54747101030E+02 -0.47539908587E+01  0.70016165901E+02  0.47000000000E+01 0. -1.
        -13    1    6    6    0    0 -0.25352450280E+02 -0.74899947276E+02  0.47227841096E+02  0.92104385410E+02  0.00000000000E+00 0.  1.
         14    1    6    6    0    0  0.96595620355E+01 -0.43408593994E+01 -0.20719642840E+02  0.23269159814E+02  0.00000000000E+00 0. -1.
         -5    1    3    3    0  503  0.66419453918E+02 -0.31289545285E+02 -0.62162577613E+02  0.96316434518E+02  0.47000000000E+01 0.  1.
         13    1    4    4    0    0  0.10970756234E+02 -0.17823100984E+02 -0.40017964367E+02  0.45160357539E+02  0.00000000000E+00 0. -1.
        -14    1    4    4    0    0 -0.18565802258E+02  0.73606351914E+02 -0.97312544277E+02  0.12341926644E+03  0.00000000000E+00 0.  1.
</event>
<event>
12    1  0.1596842E-001  0.2002909E+03  0.7818608E-02  0.1150900E+00
         21   -1    0    0  501  502  0.00000000000E+00  0.00000000000E+00  0.12427626221E+04  0.12427626221E+04  0.00000000000E+00 0.  1.
         21   -1    0    0  502  503 -0.00000000000E+00 -0.00000000000E+00 -0.39733984162E+02  0.39733984162E+02  0.00000000000E+00 0.  1.
         -6    2    1    2    0  503 -0.10250202891E+03 -0.45361729700E+01  0.89024562791E+03  0.91108084387E+03  0.16432827894E+03 0.  0.
        -24    2    3    3    0    0 -0.12352895924E+03 -0.33034629158E+02  0.62356748019E+03  0.64202022193E+03  0.83683167528E+02 0.  0.
          6    2    1    2  501    0  0.10250202891E+03  0.45361729700E+01  0.31278300998E+03  0.37141576235E+03  0.17201515745E+03 0.  0.
         24    2    5    5    0    0  0.11998279092E+03 -0.18398048088E+02  0.16128162329E+03  0.21712280818E+03  0.79976206035E+02 0.  0.
          5    1    5    5  501    0 -0.17480762010E+02  0.22934221058E+02  0.15150138669E+03  0.15429295416E+03  0.47000000000E+01 0. -1.
        -11    1    6    6    0    0  0.54323638862E+02 -0.42030956076E+01  0.13393535023E+03  0.14459392032E+03  0.00000000000E+00 0.  1.
         12    1    6    6    0    0  0.65659152054E+02 -0.14194952481E+02  0.27346273062E+02  0.72528887864E+02  0.00000000000E+00 0. -1.
         -5    1    3    3    0  503  0.21026930336E+02  0.28498456188E+02  0.26667814772E+03  0.26906062194E+03  0.47000000000E+01 0.  1.
         13    1    4    4    0    0 -0.65634807965E+02 -0.50154643702E+02  0.46635497282E+03  0.47361416467E+03  0.00000000000E+00 0. -1.
        -14    1    4    4    0    0 -0.57894151276E+02  0.17120014544E+02  0.15721250736E+03  0.16840605726E+03  0.00000000000E+00 0.  1.
</event>
<event>
12    1  0.1596842E-001  0.1856500E+03  0.7818608E-02  0.1164161E+00
         21   -1    0    0  503  502  0.00000000000E+00  0.00000000000E+00  0.33195234482E+03  0.33195234482E+03  0.00000000000E+00 0.  1.
         21   -1    0    0  501  503 -0.00000000000E+00 -0.00000000000E+00 -0.16209786530E+03  0.16209786530E+03  0.00000000000E+00 0.  1.
          6    2    1    2  501    0 -0.43807166738E+02  0.22705633734E+02 -0.67128189180E+02  0.19741355475E+03  0.17897291458E+03 0.  0.
         24    2    3    3    0    0 -0.90895756971E+02  0.49581264187E+02 -0.51670476990E+02  0.14083912847E+03  0.80283756281E+02 0.  0.
         -6    2    1    2    0  502  0.43807166738E+02 -0.22705633734E+02  0.23698266870E+03  0.29663665537E+03  0.17145817679E+03 0.  0.
        -24    2    5    5    0    0  0.18373126042E+02  0.48922949791E+02  0.10364040534E+03  0.14307952072E+03  0.83662350283E+02 0.  0.
          5    1    3    3  501    0  0.47088590233E+02 -0.26875630453E+02 -0.15457712190E+02  0.56574426277E+02  0.47000000000E+01 0. -1.
        -13    1    4    4    0    0 -0.59592411300E+02  0.25920769986E+02 -0.71713005963E+02  0.96777564680E+02  0.00000000000E+00 0.  1.
         14    1    4    4    0    0 -0.31303345671E+02  0.23660494201E+02  0.20042528974E+02  0.44061563791E+02  0.00000000000E+00 0. -1.
         -5    1    5    5    0  502  0.25434040696E+02 -0.71628583524E+02  0.13334226336E+03  0.15355713465E+03  0.47000000000E+01 0.  1.
         13    1    6    6    0    0 -0.13589604470E+02 -0.19111656787E+02  0.23325473485E+02  0.33075829364E+02  0.00000000000E+00 0. -1.
        -14    1    6    6    0    0  0.31962730512E+02  0.68034606578E+02  0.80314931851E+02  0.11000369136E+03  0.00000000000E+00 0.  1.
</event>
<event>
12    1  0.1596842E-001  0.1769008E+03  0.7818608E-02  0.1171028E+00
         21   -1    0    0  501  502  0.00000000000E+00  0.00000000000E+00  0.87222755559E+02  0.87222755559E+02  0.00000000000E+00 0. -1.
         21   -1    0    0  502  503 -0.00000000000E+00 -0.00000000000E+00 -0.54803376163E+03  0.54803376163E+03  0.00000000000E+00 0. -1.
         -6    2    1    2    0  503  0.31164195556E+02 -0.44189014213E+01 -0.41815745335E+03  0.45403694388E+03  0.17407801941E+03 0.  0.
        -24    2    3    3    0    0  0.56454560327E+02  0.54299807235E+02 -0.28922805789E+03  0.31004955447E+03  0.79638372079E+02 0.  0.
          6    2    1    2  501    0 -0.31164195556E+02  0.44189014213E+01 -0.42653552730E+02  0.18121957332E+03  0.17329303049E+03 0.  0.
         24    2    5    5    0    0 -0.50581966567E+02  0.36551622711E+02 -0.67962317006E+02  0.13569831281E+03  0.99501754271E+02 0.  0.
          5    1    5    5  501    0  0.19417771011E+02 -0.32132721290E+02  0.25308764276E+02  0.45521260502E+02  0.47000000000E+01 0. -1.
        -13    1    6    6    0    0 -0.71953036012E+02  0.42751527272E+01 -0.64686335393E+02  0.96849565351E+02  0.00000000000E+00 0.  1.
         14    1    6    6    0    0  0.21371069445E+02  0.32276469984E+02 -0.32759816126E+01  0.38848747462E+02  0.00000000000E+00 0. -1.
         -5    1    3    3    0  503 -0.25290364771E+02 -0.58718708656E+02 -0.12892939546E+03  0.14398738941E+03  0.47000000000E+01 0.  1.
         13    1    4    4    0    0  0.27946118191E+02 -0.12496941798E+01 -0.19510265666E+03  0.19709792970E+03  0.00000000000E+00 0. -1.
        -14    1    4    4    0    0  0.28508442136E+02  0.55549501414E+02 -0.94125401235E+02  0.11295162477E+03  0.00000000000E+00 0.  1.
</event>
<event>
12    1  0.1596842E-001  0.1945718E+03  0.7818608E-02  0.1154439E+00
         21   -1    0    0  503  502  0.00000000000E+00  0.00000000000E+00  0.49680996797E+03  0.49680996797E+03  0.00000000000E+00 0. -1.
         21   -1    0    0  501  503 -0.00000000000E+00 -0.00000000000E+00 -0.27351391634E+03  0.27351391634E+03  0.00000000000E+00 0. -1.
          6    2    1    2  501    0 -0.23430317478E+02  0.87307652549E+02 -0.21555857099E+03  0.29027015583E+03  0.17210363119E+03 0.  0.
         24    2    3    3    0    0 -0.33179774999E+02  0.11655095665E+03 -0.11936459890E+03  0.18914848148E+03  0.82729786720E+02 0.  0.
         -6    2    1    2    0  502  0.23430317478E+02 -0.87307652549E+02  0.43885462262E+03  0.48005372848E+03  0.17229798739E+03 0.  0.
        -24    2    5    5    0    0  0.21105685699E+02 -0.10777258745E+03  0.43799507920E+03  0.45891025931E+03  0.81844707371E+02 0.  0.
          5    1    3    3  501    0  0.97494575206E+01 -0.29243304103E+02 -0.96193972088E+02  0.10112167435E+03  0.47000000000E+01 0. -1.
        -13    1    4    4    0    0 -0.56820506605E+02  0.98993890655E+02 -0.77504975291E+02  0.13796877021E+03  0.00000000000E+00 0.  1.
         14    1    4    4    0    0  0.23640731606E+02  0.17557065996E+02 -0.41859623612E+02  0.51179711275E+02  0.00000000000E+00 0. -1.
         -5    1    5    5    0  502  0.23246317798E+01  0.20464934901E+02  0.85954341923E+00  0.21143469165E+02  0.47000000000E+01 0.  1.
         11    1    6    6    0    0  0.41868653907E+02 -0.65974264371E+02  0.35681500948E+03  0.36527050076E+03  0.00000000000E+00 0. -1.
        -12    1    6    6    0    0 -0.20762968209E+02 -0.41798323079E+02  0.81180069722E+02  0.93639758549E+02  0.00000000000E+00 0.  1.
</event>
<event>
12    1  0.1596842E-001  0.1896469E+03  0.7818608E-02  0.1159723E+00
         21   -1    0    0  501  502  0.00000000000E+00  0.00000000000E+00  0.10640930471E+03  0.10640930471E+03  0.00000000000E+00 0. -1.
         21   -1    0    0  502  503 -0.00000000000E+00 -0.00000000000E+00 -0.58341738773E+03  0.58341738773E+03  0.00000000000E+00 0. -1.
         -6    2    1    2    0  503 -0.41730476204E+02  0.56546026339E+02 -0.46699118263E+03  0.50403046373E+03  0.17614499133E+03 0.  0.
        -24    2    3    3    0    0 -0.31325558358E+02  0.88160759670E+02 -0.19909233547E+03  0.23403113782E+03  0.79869927224E+02 0.  0.
          6    2    1    2  501    0  0.41730476204E+02 -0.56546026339E+02 -0.10016900389E+02  0.18579622871E+03  0.17170036276E+03 0.  0.
         24    2    5    5    0    0 -0.39637181079E+02 -0.53519678185E+02 -0.79267308406E+01  0.10420999676E+03  0.79758562463E+02 0.  0.
          5    1    5    5  501    0  0.81367657283E+02 -0.30263481542E+01 -0.20901695488E+01  0.81586231949E+02  0.47000000000E+01 0. -1.
        -13    1    6    6    0    0 -0.23981467479E+02  0.18339127139E+02 -0.50488876365E+01  0.30609240974E+02  0.00000000000E+00 0.  1.
         14    1    6    6    0    0 -0.15655713601E+02 -0.71858805323E+02 -0.28778432042E+01  0.73600755787E+02  0.00000000000E+00 0. -1.
         -5    1    3    3    0  503 -0.10404917845E+02 -0.31614733331E+02 -0.26789884716E+03  0.26999932591E+03  0.47000000000E+01 0.  1.
         13    1    4    4    0    0 -0.21477597879E+02  0.54417073827E+02 -0.18842326961E+03  0.19729630930E+03  0.00000000000E+00 0. -1.
        -14    1    4    4    0    0 -0.98479604793E+01  0.33743685844E+02 -0.10669065862E+02  0.36734828518E+02  0.00000000000E+00 0.  1.
</event>
<event>
12    1  0.1596842E-001  0.1933294E+03  0.7818608E-02  0.1155576E+00
         21   -1    0    0  503  502  0.00000000000E+00  0.00000000000E+00  0.20838290680E+03  0.20838290680E+03  0.00000000000E+00 0. -1.
         21   -1    0    0  501  503 -0.00000000000E+00 -0.00000000000E+00 -0.17920087911E+03  0.17920087911E+03  0.00000000000E+00 0. -1.
          6    2    1    2  501    0  0.99749441972E+01  0.87304033655E+02  0.20899170246E+02  0.19407698669E+03  0.17177778565E+03 0.  0.
         24    2    3    3    0    0  0.66787457393E+02  0.22053823026E+02  0.67998595117E+01  0.10629240829E+03  0.79403415511E+02 0.  0.
         -6    2    1    2    0  502 -0.99749441972E+01 -0.87304033655E+02  0.82828574457E+01  0.19350679921E+03  0.17220563815E+03 0.  0.
        -24    2    5    5    0    0  0.98384574871E+01  0.99433697994E+01 -0.32272833034E+02  0.86191924219E+02  0.78688285023E+02 0.  0.
          5    1    3    3  501    0 -0.56812513196E+02  0.65250210628E+02  0.14099310735E+02  0.87784578406E+02  0.47000000000E+01 0. -1.
        -13    1    4    4    0    0  0.35762592184E+02 -0.28982390438E+02 -0.11049270982E+01  0.46045225801E+02  0.00000000000E+00 0.  1.
         14    1    4    4    0    0  0.31024865210E+02  0.51036213464E+02  0.79047866099E+01  0.60247182485E+02  0.00000000000E+00 0. -1.
         -5    1    5    5    0  502 -0.19813401684E+02 -0.97247403454E+02  0.40555690479E+02  0.10731487499E+03  0.47000000000E+01 0.  1.
         13    1    6    6    0    0 -0.18720440240E+02 -0.13796884363E+02 -0.41816112887E+02  0.47847635238E+02  0.00000000000E+00 0. -1.
        -14    1    6    6    0    0  0.28558897727E+02  0.23740254163E+02  0.95432798535E+01  0.38344288981E+02  0.00000000000E+00 0.  1.
</event>
<event>
12    1  0.1596842E-001  0.1854209E+03  0.7818608E-02  0.1162965E+00
         21   -1    0    0  503  502  0.00000000000E+00  0.00000000000E+00  0.84736112889E+03  0.84736112889E+03  0.00000000000E+00 0. -1.
         21   -1    0    0  501  503 -0.00000000000E+00 -0.00000000000E+00 -0.98731529755E+02  0.98731529755E+02  0.00000000000E+00 0. -1.
          6    2    1    2  501    0 -0.22880287758E+01 -0.69217208203E+02  0.98164470713E+01  0.18436713991E+03  0.17058318398E+03 0.  0.
         24    2    3    3    0    0 -0.45678677811E+02 -0.95095695528E+02  0.20142738396E+02  0.13258715514E+03  0.77742465121E+02 0.  0.
         -6    2    1    2    0  502  0.22880287758E+01  0.69217208203E+02  0.73881315207E+03  0.76172551874E+03  0.17200184664E+03 0.  0.
        -24    2    5    5    0    0 -0.40808592647E+02 -0.16718320303E+02  0.32913931194E+03  0.34089659967E+03  0.77025719981E+02 0.  0.
          5    1    3    3  501    0  0.43390649035E+02  0.25878487326E+02 -0.10326291325E+02  0.51779984767E+02  0.47000000000E+01 0. -1.
        -13    1    4    4    0    0 -0.11317884364E+02  0.13201518747E+02  0.38133309216E+01  0.17802137412E+02  0.00000000000E+00 0.  1.
         14    1    4    4    0    0 -0.34360793447E+02 -0.10829721428E+03  0.16329407474E+02  0.11478501773E+03  0.00000000000E+00 0. -1.
         -5    1    5    5    0  502  0.43096621423E+02  0.85935528506E+02  0.40967384013E+03  0.42082891907E+03  0.47000000000E+01 0.  1.
         13    1    6    6    0    0 -0.11800012813E+02 -0.20803932803E+02  0.29476030110E+03  0.29572906355E+03  0.00000000000E+00 0. -1.
        -14    1    6    6    0    0 -0.29008579834E+02  0.40856124998E+01  0.34379010839E+02  0.45167536127E+02  0.00000000000E+00 0.  1.
</event>
<event>
12    1  0.1596842E-001  0.1938381E+03  0.7818608E-02  0.1157782E+00
         21   -1    0    0  503  502  0.00000000000E+00  0.00000000000E+00  0.44481562500E+02  0.44481562500E+02  0.00000000000E+00 0. -1.
         21   -1    0    0  501  503 -0.00000000000E+00 -0.00000000000E+00 -0.13789853658E+04  0.13789853658E+04  0.00000000000E+00 0. -1.
          6    2    1    2  501    0 -0.38545936559E+02  0.44432151909E+02 -0.11433587495E+04  0.11596734217E+04  0.18469761693E+03 0.  0.
         24    2    3    3    0    0 -0.74911301471E+02 -0.11998485433E+02 -0.92158289802E+03  0.92791174481E+03  0.77133011704E+02 0.  0.
         -6    2    1    2    0  502  0.38545936559E+02 -0.44432151909E+02 -0.19114505380E+03  0.26379350656E+03  0.17201911859E+03 0.  0.
        -24    2    5    5    0    0  0.61458020722E+02  0.10762587202E+02 -0.17452913842E+03  0.20158738571E+03  0.79272519373E+02 0.  0.
          5    1    3    3  501    0  0.36365364912E+02  0.56430637342E+02 -0.22177585146E+03  0.23176167692E+03  0.47000000000E+01 0. -1.
        -13    1    4    4    0    0  0.36172757073E+01 -0.24310545915E+02 -0.12651696416E+03  0.12888223131E+03  0.00000000000E+00 0.  1.
         14    1    4    4    0    0 -0.78528577179E+02  0.12312060482E+02 -0.79506593386E+03  0.79902951351E+03  0.00000000000E+00 0. -1.
         -5    1    5    5    0  502 -0.22912084163E+02 -0.55194739111E+02 -0.16615915387E+02  0.62206120844E+02  0.47000000000E+01 0.  1.
         11    1    6    6    0    0  0.21496662589E+02 -0.26474855408E+02 -0.24688900406E+02  0.42101855952E+02  0.00000000000E+00 0. -1.
        -12    1    6    6    0    0  0.39961358133E+02  0.37237442611E+02 -0.14984023801E+03  0.15948552976E+03  0.00000000000E+00 0.  1.
</event>
<event>
12    1  0.1596842E-001  0.1755853E+03  0.7818608E-02  0.1172185E+00
         21   -1    0    0  503  502  0.00000000000E+00  0.00000000000E+00  0.56416776442E+03  0.56416776442E+03  0.00000000000E+00 0. -1.
         21   -1    0    0  501  503 -0.00000000000E+00 -0.00000000000E+00 -0.13466073446E+03  0.13466073446E+03  0.00000000000E+00 0. -1.
          6    2    1    2  501    0  0.11587658502E+02 -0.29354326933E+02 -0.54630482785E+02  0.18388766605E+03  0.17272589191E+03 0.  0.
         24    2    3    3    0    0 -0.27922920583E+02 -0.49336164571E+02 -0.81825016155E+02  0.13171494962E+03  0.86253974143E+02 0.  0.
         -6    2    1    2    0  502 -0.11587658502E+02  0.29354326933E+02  0.48413751274E+03  0.51494083283E+03  0.17256587069E+03 0.  0.
        -24    2    5    5    0    0  0.51760295350E+02  0.89742001054E+00  0.37499758928E+03  0.38549442808E+03  0.72820523031E+02 0.  0.
          5    1    3    3  501    0  0.39510579085E+02  0.19981837638E+02  0.27194533370E+02  0.52172716435E+02  0.47000000000E+01 0. -1.
        -11    1    4    4    0    0  0.27565361906E+02  0.19086397389E+01 -0.23806626669E+02  0.36472558946E+02  0.00000000000E+00 0.  1.
         12    1    4    4    0    0 -0.55488282489E+02 -0.51244804310E+02 -0.58018389486E+02  0.95242390672E+02  0.00000000000E+00 0. -1.
         -5    1    5    5    0  502 -0.63347953852E+02  0.28456906922E+02  0.10913992346E+03  0.12944640475E+03  0.47000000000E+01 0.  1.
         11    1    6    6    0    0  0.22044401324E+02 -0.86099032361E+01  0.32937297668E+03  0.33022211287E+03  0.00000000000E+00 0. -1.
        -12    1    6    6    0    0  0.29715894026E+02  0.95073232467E+01  0.45624612606E+02  0.55272315209E+02  0.00000000000E+00 0.  1.
</event>
<event>
12    1  0.1596842E-001  0.1995334E+03  0.7818608E-02  0.1150382E+00
         21   -1    0    0  503  502  0.00000000000E+00  0.00000000000E+00  0.34887838359E+03  0.34887838359E+03  0.00000000000E+00 0. -1.
         21   -1    0    0  501  503 -0.00000000000E+00 -0.00000000000E+00 -0.13321744076E+03  0.13321744076E+03  0.00000000000E+00 0. -1.
          6    2    1    2  501    0 -0.93702284961E+02  0.35803392351E+02  0.20095710352E+03  0.28319135982E+03  0.17248648560E+03 0.  0.
         24    2    3    3    0    0 -0.33306337550E+02  0.71959022755E+02  0.17847759873E+03  0.20914868153E+03  0.74843200494E+02 0.  0.
         -6    2    1    2    0  502  0.93702284961E+02 -0.35803392351E+02  0.14703839313E+02  0.19890446453E+03  0.17112796969E+03 0.  0.
        -24    2    5    5    0    0 -0.11564104348E+02  0.48510599646E+01  0.24339628667E+02  0.85552200999E+02  0.81052453880E+02 0.  0.
          5    1    3    3  501    0 -0.60395947411E+02 -0.36155630403E+02  0.22479504785E+02  0.74042678294E+02  0.47000000000E+01 0. -1.
        -13    1    4    4    0    0  0.33755985421E+01  0.39180768856E+02  0.21873172651E+02  0.44999588837E+02  0.00000000000E+00 0.  1.
         14    1    4    4    0    0 -0.36681936092E+02  0.32778253899E+02  0.15660442608E+03  0.16414909269E+03  0.00000000000E+00 0. -1.
         -5    1    5    5    0  502  0.10526638931E+03 -0.40654452316E+02 -0.96357893537E+01  0.11335226353E+03  0.47000000000E+01 0.  1.
         11    1    6    6    0    0  0.34287490643E+02  0.96041714934E+01  0.69201669737E+01  0.36273417755E+02  0.00000000000E+00 0. -1.
        -12    1    6    6    0    0 -0.45851594991E+02 -0.47531115288E+01  0.17419461693E+02  0.49278783245E+02  0.00000000000E+00 0.  1.
</event>
<event>
12    1  0.1596842E-001  0.2404446E+03  0.7818608E-02  0.1119635E+00
         21   -1    0    0  501  502  0.00000000000E+00  0.00000000000E+00  0.22732931932E+03  0.22732931932E+03  0.00000000000E+00 0. -1.
         21   -1    0    0  502  503 -0.00000000000E+00 -0.00000000000E+00 -0.26783249120E+03  0.26783249120E+03  0.00000000000E+00 0.  1.
         -6    2    1    2    0  503 -0.80337366553E+02 -0.14825867391E+03 -0.77676384436E+02  0.25268006859E+03  0.17140265317E+03 0.  0.
        -24    2    3    3    0    0  0.11221280235E+02 -0.22881373484E+02 -0.41626525045E+02  0.93230591877E+02  0.79433628218E+02 0.  0.
          6    2    1    2  501    0  0.80337366553E+02  0.14825867391E+03  0.37173212561E+02  0.24248174193E+03  0.17023754164E+03 0.  0.
         24    2    5    5    0    0  0.69153518307E+02  0.24889930187E+02 -0.12015537202E+02  0.10911552247E+03  0.79750275180E+02 0.  0.
          5    1    5    5  501    0  0.11183848247E+02  0.12336874372E+03  0.49188749763E+02  0.13336621946E+03  0.47000000000E+01 0. -1.
        -13    1    6    6    0    0  0.62317393379E+01 -0.24769765516E+02  0.74931555798E+01  0.26618099846E+02  0.00000000000E+00 0.  1.
         14    1    6    6    0    0  0.62921778969E+02  0.49659695703E+02 -0.19508692782E+02  0.82497422626E+02  0.00000000000E+00 0. -1.
         -5    1    3    3    0  503 -0.91558646788E+02 -0.12537730042E+03 -0.36049859391E+02  0.15944947672E+03  0.47000000000E+01 0.  1.
         11    1    4    4    0    0  0.17501434605E+02 -0.47487456009E+02 -0.82286495263E+01  0.51274451381E+02  0.00000000000E+00 0. -1.
        -12    1    4    4    0    0 -0.62801543694E+01  0.24606082525E+02 -0.33397875519E+02  0.41956140496E+02  0.00000000000E+00 0.  1.
</event>
<event>
12    1  0.1596842E-001  0.2372493E+03  0.7818608E-02  0.1122114E+00
         21   -1    0    0  503  502  0.00000000000E+00  0.00000000000E+00  0.65119742095E+02  0.65119742095E+02  0.00000000000E+00 0. -1.
         21   -1    0    0  501  503 -0.00000000000E+00 -0.00000000000E+00 -0.88974102745E+03  0.88974102745E+03  0.00000000000E+00 0.  1.
          6    2    1    2  501    0  0.11687983513E+03 -0.10844788750E+03 -0.50535369778E+03  0.55709321345E+03  0.17189720314E+03 0.  0.
         24    2    3    3    0    0  0.43916190016E+02 -0.75930817425E+02 -0.43221198773E+03  0.44868263692E+03  0.82551714407E+02 0.  0.
         -6    2    1    2    0  502 -0.11687983513E+03  0.10844788750E+03 -0.31926758758E+03  0.39776755610E+03  0.17568550323E+03 0.  0.
        -24    2    5    5    0    0 -0.10892248061E+03  0.77389101435E+01 -0.15951168299E+03  0.20869176003E+03  0.78640168990E+02 0.  0.
          5    1    3    3  501    0  0.72963645115E+02 -0.32517070076E+02 -0.73141710045E+02  0.10841057653E+03  0.47000000000E+01 0. -1.
        -13    1    4    4    0    0  0.66114920645E+02 -0.39845684338E+02 -0.30422541929E+03  0.31386616102E+03  0.00000000000E+00 0.  1.
         14    1    4    4    0    0 -0.22198730629E+02 -0.36085133087E+02 -0.12798656845E+03  0.13481647590E+03  0.00000000000E+00 0. -1.
         -5    1    5    5    0  502 -0.79573545219E+01  0.10070897736E+03 -0.15975590458E+03  0.18907579607E+03  0.47000000000E+01 0.  1.
         11    1    6    6    0    0  0.52064548299E+01  0.18990007959E+02 -0.19569689530E+02  0.27761489918E+02  0.00000000000E+00 0. -1.
        -12    1    6    6    0    0 -0.11412893544E+03 -0.11251097815E+02 -0.13994199346E+03  0.18093027011E+03  0.00000000000E+00 0.  1.
</event>
<event>
12    1  0.1596842E-001  0.1992170E+03  0.7818608E-02  0.1150532E+00
         21   -1    0    0  501  502  0.00000000000E+00  0.00000000000E+00  0.23744879105E+03  0.23744879105E+03  0.00000000000E+00 0.  1.
         21   -1    0    0  502  503 -0.00000000000E+00 -0.00000000000E+00 -0.22454073248E+03  0.22454073248E+03  0.00000000000E+00 0. -1.
         -6    2    1    2    0  503 -0.98583475108E+02 -0.87655635904E+01 -0.11086859133E+03  0.22745156553E+03  0.17218255849E+03 0.  0.
        -24    2    3    3    0    0 -0.56449845838E+02 -0.59666636180E+02 -0.11600556075E+03  0.16100880549E+03  0.75629708137E+02 0.  0.
          6    2    1    2  501    0  0.98583475108E+02  0.87655635904E+01  0.12377664989E+03  0.23453795801E+03  0.17289261991E+03 0.  0.
         24    2    5    5    0    0  0.55431720351E+02 -0.60300907207E+02  0.48521093494E+02  0.12355264323E+03  0.78753311706E+02 0.  0.
          5    1    5    5  501    0  0.43151754757E+02  0.69066470797E+02  0.75255556400E+02  0.11098531478E+03  0.47000000000E+01 0. -1.
        -11    1    6    6    0    0 -0.38932131667E+01 -0.23503625209E+02  0.48172199073E+02  0.53741401826E+02  0.00000000000E+00 0.  1.
         12    1    6    6    0    0  0.59324933517E+02 -0.36797281998E+02  0.34889442089E+00  0.69811241406E+02  0.00000000000E+00 0. -1.
         -5    1    3    3    0  503 -0.42133629270E+02  0.50901072590E+02  0.51369694225E+01  0.66442760036E+02  0.47000000000E+01 0.  1.
         13    1    4    4    0    0 -0.70456193226E+02 -0.26090075479E+02 -0.74311952133E+02  0.10567418527E+03  0.00000000000E+00 0. -1.
        -14    1    4    4    0    0  0.14006347389E+02 -0.33576560701E+02 -0.41693608616E+02  0.55334620222E+02  0.00000000000E+00 0.  1.
</event>
<event>
12    1  0.1596842E-001  0.2096785E+03  0.7818608E-02  0.1141998E+00
         21   -1    0    0  501  502  0.00000000000E+00  0.00000000000E+00  0.17090409619E+03  0.17090409619E+03  0.00000000000E+00 0. -1.
         21   -1    0    0  502  503 -0.00000000000E+00 -0.00000000000E+00 -0.25727491517E+03  0.25727491517E+03  0.00000000000E+00 0. -1.
         -6    2    1    2    0  503 -0.10010196553E+03 -0.68997590455E+02 -0.57218446196E+02  0.21648367126E+03  0.16973555416E+03 0.  0.
        -24    2    3    3    0    0 -0.13404791779E+03 -0.76923896812E+02 -0.47212564331E+02  0.17991371530E+03  0.79080898813E+02 0.  0.
          6    2    1    2  501    0  0.10010196553E+03  0.68997590455E+02 -0.29152372789E+02  0.21169534009E+03  0.17083320868E+03 0.  0.
         24    2    5    5    0    0  0.52882473593E+02  0.47564992094E+02 -0.83383811876E+02  0.13651438721E+03  0.81390007656E+02 0.  0.
          5    1    5    5  501    0  0.47219491936E+02  0.21432598360E+02  0.54231439086E+02  0.75180952884E+02  0.47000000000E+01 0. -1.
        -11    1    6    6    0    0  0.24529851959E+02  0.61593143158E+02 -0.26443356139E+02  0.71377027152E+02  0.00000000000E+00 0.  1.
         12    1    6    6    0    0  0.28352621635E+02 -0.14028151064E+02 -0.56940455737E+02  0.65137360058E+02  0.00000000000E+00 0. -1.
         -5    1    3    3    0  503  0.33945952261E+02  0.79263063569E+01 -0.10005881865E+02  0.36569955965E+02  0.47000000000E+01 0.  1.
         13    1    4    4    0    0 -0.55921233190E+02  0.97563333965E+01 -0.11959896276E+02  0.58012149432E+02  0.00000000000E+00 0. -1.
        -14    1    4    4    0    0 -0.78126684600E+02 -0.86680230208E+02 -0.35252668056E+02  0.12190156587E+03  0.00000000000E+00 0.  1.
</event>
<event>
12    1  0.1596842E-001  0.2024354E+03  0.7818608E-02  0.1147755E+00
         21   -1    0    0  503  502  0.00000000000E+00  0.00000000000E+00  0.38340007307E+03  0.38340007307E+03  0.00000000000E+00 0. -1.
         21   -1    0    0  501  503 -0.00000000000E+00 -0.00000000000E+00 -0.10688481316E+03  0.10688481316E+03  0.00000000000E+00 0.  1.
          6    2    1    2  501    0 -0.80880395598E+02  0.70088787353E+02  0.12935668414E+03  0.24001359255E+03  0.17152054213E+03 0.  0.
         24    2    3    3    0    0 -0.23406443935E+02  0.26661162925E+02  0.14142552252E+03  0.16682233253E+03  0.81054506256E+02 0.  0.
         -6    2    1    2    0  502  0.80880395598E+02 -0.70088787353E+02  0.14715857577E+03  0.25027129368E+03  0.17183130539E+03 0.  0.
        -24    2    5    5    0    0  0.69579342271E+02 -0.94926905071E+02  0.16449278119E+03  0.21760310463E+03  0.80254806109E+02 0.  0.
          5    1    3    3  501    0 -0.57473951664E+02  0.43427624427E+02 -0.12068838380E+02  0.73191260018E+02  0.47000000000E+01 0. -1.
        -11    1    4    4    0    0 -0.45266174665E+02  0.11270157475E+01  0.41596417253E+02  0.61486247744E+02  0.00000000000E+00 0.  1.
         12    1    4    4    0    0  0.21859730731E+02  0.25534147178E+02  0.99829105266E+02  0.10533608479E+03  0.00000000000E+00 0. -1.
         -5    1    5    5    0  502  0.11301053327E+02  0.24838117718E+02 -0.17334205419E+02  0.32668189047E+02  0.47000000000E+01 0.  1.
         13    1    6    6    0    0  0.26098812299E+02  0.93472176888E+01  0.47274849141E+02  0.54803556849E+02  0.00000000000E+00 0. -1.
        -14    1    6    6    0    0  0.43480529972E+02 -0.10427412276E+03  0.11721793205E+03  0.16279954778E+03  0.00000000000E+00 0.  1.
</event>
<event>
12    1  0.1596842E-001  0.1753488E+03  0.7818608E-02  0.1172673E+00
         21   -1    0    0  503  502  0.00000000000E+00  0.00000000000E+00  0.53864585207E+02  0.53864585207E+02  0.00000000000E+00 0.  1.
         21   -1    0    0  501  503 -0.00000000000E+00 -0.00000000000E+00 -0.70246073573E+03  0.70246073573E+03  0.00000000000E+00 0.  1.
          6    2    1    2  501    0  0.35257763360E+02  0.56188194878E+01 -0.49119384351E+03  0.52155402115E+03  0.17167563619E+03 0.  0.
         24    2    3    3    0    0 -0.45966544853E+02  0.14076077851E+02 -0.21426351828E+03  0.23279562993E+03  0.77290949253E+02 0.  0.
         -6    2    1    2    0  502 -0.35257763360E+02 -0.56188194878E+01 -0.15740230701E+03  0.23477129979E+03  0.17049163012E+03 0.  0.
        -24    2    5    5    0    0  0.24827046971E+02 -0.31994115465E+02 -0.14039907204E+03  0.16682249060E+03  0.80485018815E+02 0.  0.
          5    1    3    3  501    0  0.81224308213E+02 -0.84572583631E+01 -0.27693032523E+03  0.28875839122E+03  0.47000000000E+01 0. -1.
        -11    1    4    4    0    0 -0.19811196309E+02  0.22000268408E+02 -0.18020614788E+02  0.34658878610E+02  0.00000000000E+00 0.  1.
         12    1    4    4    0    0 -0.26155348544E+02 -0.79241905566E+01 -0.19624290349E+03  0.19813675132E+03  0.00000000000E+00 0. -1.
         -5    1    5    5    0  502 -0.60084810332E+02  0.26375295977E+02 -0.17003234962E+02  0.67948809185E+02  0.47000000000E+01 0.  1.
         13    1    6    6    0    0  0.26118686863E+02 -0.21045949489E+02 -0.86863808179E+01  0.34649256919E+02  0.00000000000E+00 0. -1.
        -14    1    6    6    0    0 -0.12916398914E+01 -0.10948165976E+02 -0.13171269123E+03  0.13217323368E+03  0.00000000000E+00 0.  1.
</event>
<event>
12    1  0.1596842E-001  0.1938950E+03  0.7818608E-02  0.1155487E+00
         21   -1    0    0  503  502  0.00000000000E+00  0.00000000000E+00  0.18424615450E+02  0.18424615450E+02  0.00000000000E+00 0. -1.
         21   -1    0    0  501  503 -0.00000000000E+00 -0.00000000000E+00 -0.22827275720E+04  0.22827275720E+04  0.00000000000E+00 0.  1.
          6    2    1    2  501    0  0.10575328771E+02  0.88203291852E+02 -0.15188461837E+04  0.15308917977E+04  0.16983612223E+03 0.  0.
         24    2    3    3    0    0  0.43647726338E+02  0.11200553061E+03 -0.99797274925E+03  0.10084058604E+04  0.80513403070E+02 0.  0.
         -6    2    1    2    0  502 -0.10575328771E+02 -0.88203291852E+02 -0.74545677288E+03  0.77026038973E+03  0.17234735123E+03 0.  0.
        -24    2    5    5    0    0  0.57406278656E+01 -0.17540453573E+02 -0.15418476780E+03  0.17453887665E+03  0.79688484237E+02 0.  0.
          5    1    3    3  501    0 -0.33072397567E+02 -0.23802238759E+02 -0.52087343444E+03  0.52248593738E+03  0.47000000000E+01 0. -1.
        -13    1    4    4    0    0 -0.13584598164E+02  0.17636274196E+02 -0.38023528661E+03  0.38088640387E+03  0.00000000000E+00 0.  1.
         14    1    4    4    0    0  0.57232324502E+02  0.94369256415E+02 -0.61773746264E+03  0.62751945649E+03  0.00000000000E+00 0. -1.
         -5    1    5    5    0  502 -0.16315956637E+02 -0.70662838279E+02 -0.59127200508E+03  0.59572151308E+03  0.47000000000E+01 0.  1.
         13    1    6    6    0    0 -0.77432735691E+01  0.30086209825E+02 -0.74686520538E+02  0.80890139431E+02  0.00000000000E+00 0. -1.
        -14    1    6    6    0    0  0.13483901435E+02 -0.47626663399E+02 -0.79498247265E+02  0.93648737218E+02  0.00000000000E+00 0.  1.
</event>
<event>
12    1  0.1596842E-001  0.1862584E+03  0.7818608E-02  0.1162085E+00
         21   -1    0    0  503  502  0.00000000000E+00  0.00000000000E+00  0.14128088566E+04  0.14128088566E+04  0.00000000000E+00 0. -1.
         21   -1    0    0  501  503 -0.00000000000E+00 -0.00000000000E+00 -0.28656178245E+02  0.28656178245E+02  0.00000000000E+00 0. -1.
          6    2    1    2  501    0  0.70956409485E+02  0.23676891320E+01  0.41699489389E+03  0.45670222625E+03  0.17219687551E+03 0.  0.
         24    2    3    3    0    0 -0.40413499122E+01 -0.50257604936E+02  0.21005288623E+03  0.23033710079E+03  0.79942514505E+02 0.  0.
         -6    2    1    2    0  502 -0.70956409485E+02 -0.23676891320E+01  0.96715778445E+03  0.98476280858E+03  0.17124015632E+03 0.  0.
        -24    2    5    5    0    0 -0.41725636589E+02 -0.44923813123E+02  0.86054230866E+03  0.86621150555E+03  0.77653909137E+02 0.  0.
          5    1    3    3  501    0  0.74997759397E+02  0.52625294068E+02  0.20694200766E+03  0.22636512546E+03  0.47000000000E+01 0. -1.
        -11    1    4    4    0    0 -0.30244195772E+02 -0.17387920661E+02  0.16528779757E+03  0.16892929641E+03  0.00000000000E+00 0.  1.
         12    1    4    4    0    0  0.26202845860E+02 -0.32869684274E+02  0.44765088659E+02  0.61407804375E+02  0.00000000000E+00 0. -1.
         -5    1    5    5    0  502 -0.29230772896E+02  0.42556123991E+02  0.10661547578E+03  0.11855130303E+03  0.47000000000E+01 0.  1.
         13    1    6    6    0    0 -0.34634469572E+02 -0.46929604218E+02  0.85500876116E+03  0.85699586690E+03  0.00000000000E+00 0. -1.
        -14    1    6    6    0    0 -0.70911670173E+01  0.20057910942E+01  0.55335475089E+01  0.92156386438E+01  0.00000000000E+00 0.  1.
</event>
<event>
12    1  0.1596842E-001  0.2145987E+03  0.7818608E-02  0.1138004E+00
         21   -1    0    0  501  502  0.00000000000E+00  0.00000000000E+00  0.28714313881E+03  0.28714313881E+03  0.00000000000E+00 0.  1.
         21   -1    0    0  502  503 -0.00000000000E+00 -0.00000000000E+00 -0.74798715748E+03  0.74798715748E+03  0.00000000000E+00 0.  1.
         -6    2    1    2    0  503  0.12468979749E+03 -0.36800559015E+02 -0.68918225793E+03  0.72177594708E+03  0.17054766606E+03 0.  0.
        -24    2    3    3    0    0  0.12943169183E+03  0.15896314521E+02 -0.40811266738E+03  0.43573110659E+03  0.79375010589E+02 0.  0.
          6    2    1    2  501    0 -0.12468979749E+03  0.36800559015E+02  0.22833823926E+03  0.31335434920E+03  0.17073596550E+03 0.  0.
         24    2    5    5    0    0 -0.24841933887E+01 -0.55268954042E+01  0.14395146956E+03  0.15885826520E+03  0.66911920043E+02 0.  0.
          5    1    5    5  501    0 -0.12220560410E+03  0.42327454419E+02  0.84386769696E+02  0.15449608400E+03  0.47000000000E+01 0. -1.
        -13    1    6    6    0    0 -0.20498864326E+02 -0.17455154136E+02  0.13084847277E+03  0.13358970271E+03  0.00000000000E+00 0.  1.
         14    1    6    6    0    0  0.18014670938E+02  0.11928258732E+02  0.13102996796E+02  0.25268562492E+02  0.00000000000E+00 0. -1.
         -5    1    3    3    0  503 -0.47418943346E+01 -0.52696873536E+02 -0.28106959055E+03  0.28604484050E+03  0.47000000000E+01 0.  1.
         13    1    4    4    0    0  0.80495104222E+02  0.24252448889E+00 -0.12993505166E+03  0.15284841599E+03  0.00000000000E+00 0. -1.
        -14    1    4    4    0    0  0.48936587605E+02  0.15653790032E+02 -0.27817761572E+03  0.28288269060E+03  0.00000000000E+00 0.  1.
</event>
<event>
12    1  0.1596842E-001  0.1835145E+03  0.7818608E-02  0.1164521E+00
         21   -1    0    0  501  502  0.00000000000E+00  0.00000000000E+00  0.11346428623E+03  0.11346428623E+03  0.00000000000E+00 0. -1.
         21   -1    0    0  502  503 -0.00000000000E+00 -0.00000000000E+00 -0.29712607509E+03  0.29712607509E+03  0.00000000000E+00 0. -1.
         -6    2    1    2    0  503  0.23782046833E+02 -0.58368633988E+02 -0.81009312978E+02  0.20059933035E+03  0.17235167352E+03 0.  0.
        -24    2    3    3    0    0  0.70048148366E+02 -0.52002173046E+02 -0.10936136783E+02  0.11625821346E+03  0.76061843385E+02 0.  0.
          6    2    1    2  501    0 -0.23782046833E+02  0.58368633988E+02 -0.10265247589E+03  0.20999103096E+03  0.17200645073E+03 0.  0.
         24    2    5    5    0    0  0.35345487518E+02 -0.15578009205E+02 -0.46682035749E+02  0.99904921361E+02  0.79434268372E+02 0.  0.
          5    1    5    5  501    0 -0.59127534351E+02  0.73946643193E+02 -0.55970440137E+02  0.11008610960E+03  0.47000000000E+01 0. -1.
        -13    1    6    6    0    0 -0.20382885191E+02  0.10524195388E+02 -0.46545247657E+00  0.22944222438E+02  0.00000000000E+00 0.  1.
         14    1    6    6    0    0  0.55728372709E+02 -0.26102204593E+02 -0.46216583272E+02  0.76960698923E+02  0.00000000000E+00 0. -1.
         -5    1    3    3    0  503 -0.46266101534E+02 -0.63664609422E+01 -0.70073176195E+02  0.84341116889E+02  0.47000000000E+01 0.  1.
         11    1    4    4    0    0  0.31461338461E+02 -0.63015090652E+02 -0.23435439710E+02  0.74228951912E+02  0.00000000000E+00 0. -1.
        -12    1    4    4    0    0  0.38586809906E+02  0.11012917606E+02  0.12499302927E+02  0.42029261552E+02  0.00000000000E+00 0.  1.
</event>
<event>
12    1  0.1596842E-001  0.2074437E+03  0.7818608E-02  0.1143676E+00
         21   -1    0    0  501  502  0.00000000000E+00  0.00000000000E+00  0.10392520727E+03  0.10392520727E+03  0.00000000000E+00 0.  1.
         21   -1    0    0  502  503 -0.00000000000E+00 -0.00000000000E+00 -0.41641247232E+03  0.41641247232E+03  0.00000000000E+00 0.  1.
         -6    2    1    2    0  503 -0.66281791756E+01 -0.11546903162E+03 -0.13420082781E+03  0.24706829318E+03  0.17220873754E+03 0.  0.
        -24    2    3    3    0    0  0.11697123878E+02 -0.14096420719E+03 -0.13974340664E+03  0.21484049634E+03  0.81366385884E+02 0.  0.
          6    2    1    2  501    0  0.66281791756E+01  0.11546903162E+03 -0.17828643723E+03  0.27326938641E+03  0.17179369554E+03 0.  0.
         24    2    5    5    0    0 -0.45847656200E+01  0.50148457566E+02 -0.18460395013E+03  0.20652728205E+03  0.77711080007E+02 0.  0.
          5    1    5    5  501    0  0.11212944796E+02  0.65320574054E+02  0.63175128952E+01  0.66742104364E+02  0.47000000000E+01 0. -1.
        -13    1    6    6    0    0 -0.27671168445E+01  0.63332767070E+02 -0.18231624534E+03  0.19302308058E+03  0.00000000000E+00 0.  1.
         14    1    6    6    0    0 -0.18176487755E+01 -0.13184309504E+02 -0.22877047853E+01  0.13504201470E+02  0.00000000000E+00 0. -1.
         -5    1    3    3    0  503 -0.18325303054E+02  0.25495175569E+02  0.55425788251E+01  0.32227796842E+02  0.47000000000E+01 0.  1.
         13    1    4    4    0    0 -0.22257819217E+02 -0.56195809357E+02 -0.96347387792E+02  0.11373741091E+03  0.00000000000E+00 0. -1.
        -14    1    4    4    0    0  0.33954943095E+02 -0.84768397831E+02 -0.43396018845E+02  0.10110308543E+03  0.00000000000E+00 0.  1.
</event>
<event>
12    1  0.1596842E-001  0.1759671E+03  0.7818608E-02  0.1171885E+00
         21   -1    0    0  501  502  0.00000000000E+00  0.00000000000E+00  0.15174875364E+03  0.15174875364E+03  0.00000000000E+00 0.  1.
         21   -1    0    0  502  503 -0.00000000000E+00 -0.00000000000E+00 -0.41917033519E+03  0.41917033519E+03  0.00000000000E+00 0.  1.
         -6    2    1    2    0  503  0.14592766970E+02 -0.36030460498E+02 -0.33856385126E+03  0.38156246477E+03  0.17161960905E+03 0.  0.
        -24    2    3    3    0    0 -0.15949648102E+02  0.39198054522E+02 -0.22300161802E+03  0.24025114766E+03  0.78740164859E+02 0.  0.
          6    2    1    2  501    0 -0.14592766970E+02  0.36030460498E+02  0.71142269704E+02  0.18935662406E+03  0.17112441557E+03 0.  0.
         24    2    5    5    0    0  0.26802104676E+02  0.76875190831E+02  0.31505580859E+02  0.11882305406E+03  0.80611219881E+02 0.  0.
          5    1    5    5  501    0 -0.41394871646E+02 -0.40844730333E+02  0.39636688844E+02  0.70533570001E+02  0.47000000000E+01 0. -1.
        -11    1    6    6    0    0  0.46330180002E+02  0.39005115180E+02 -0.75391345843E+01  0.61030509907E+02  0.00000000000E+00 0.  1.
         12    1    6    6    0    0 -0.19528075326E+02  0.37870075651E+02  0.39044715444E+02  0.57792544154E+02  0.00000000000E+00 0. -1.
         -5    1    3    3    0  503  0.30542415072E+02 -0.75228515020E+02 -0.11556223324E+03  0.14131131711E+03  0.47000000000E+01 0.  1.
         13    1    4    4    0    0  0.14722940974E+01  0.69933919762E+01  0.53848112278E+01  0.89482609037E+01  0.00000000000E+00 0. -1.
        -14    1    4    4    0    0 -0.17421942199E+02  0.32204662546E+02 -0.22838642925E+03  0.23130288676E+03  0.00000000000E+00 0.  1.
</event>
<event>
12    1  0.1596842E-001  0.1802758E+03  0.7818608E-02  0.1167832E+00
         21   -1    0    0  501  502  0.00000000000E+00  0.00000000000E+00  0.29180328526E+03  0.29180328526E+03  0.00000000000E+00 0. -1.
         21   -1    0    0  502  503 -0.00000000000E+00 -0.00000000000E+00 -0.11539929244E+03  0.11539929244E+03  0.00000000000E+00 0. -1.
         -6    2    1    2    0  503 -0.24156211348E+02  0.44063422094E+02  0.47064907438E+02  0.18631814822E+03  0.17313069956E+03 0.  0.
        -24    2    3    3    0    0  0.14514920315E+02  0.53704565096E+02 -0.29047167589E+02  0.10027428715E+03  0.78206978555E+02 0.  0.
          6    2    1    2  501    0  0.24156211348E+02 -0.44063422094E+02  0.12933908539E+03  0.22088442949E+03  0.17186106153E+03 0.  0.
         24    2    5    5    0    0  0.50514043584E+02 -0.54911475422E+01  0.14366795019E+03  0.17179306517E+03  0.79313025582E+02 0.  0.
          5    1    5    5  501    0 -0.26357832236E+02 -0.38572274552E+02 -0.14328864806E+02  0.49091364321E+02  0.47000000000E+01 0. -1.
        -13    1    6    6    0    0  0.70845899787E+01  0.25505365443E+02  0.10758861207E+02  0.28573907258E+02  0.00000000000E+00 0.  1.
         14    1    6    6    0    0  0.43429453605E+02 -0.30996512985E+02  0.13290908898E+03  0.14321915791E+03  0.00000000000E+00 0. -1.
         -5    1    3    3    0  503 -0.38671131663E+02 -0.96411430016E+01  0.76112075026E+02  0.86043861067E+02  0.47000000000E+01 0.  1.
         11    1    4    4    0    0  0.36482078663E+02  0.48850029662E+02  0.30872006046E+01  0.61047508295E+02  0.00000000000E+00 0. -1.
        -12    1    4    4    0    0 -0.21967158348E+02  0.48545354343E+01 -0.32134368193E+02  0.39226778855E+02  0.00000000000E+00 0.  1.
</event>
<event>
12    1  0.1596842E-001  0.3728851E+03  0.7818608E-02  0.1053678E+00
         21   -1    0    0  501  502  0.00000000000E+00  0.00000000000E+00  0.26167582269E+03  0.26167582269E+03  0.00000000000E+00 0. -1.
         21   -1    0    0  502  503 -0.00000000000E+00 -0.00000000000E+00 -0.63735835081E+03  0.63735835081E+03  0.00000000000E+00 0.  1.
         -6    2    1    2    0  503 -0.31099392912E+03 -0.11010333746E+03 -0.37241624849E+03  0.52700777351E+03  0.17379114574E+03 0.  0.
        -24    2    3    3    0    0 -0.13650940661E+03 -0.92973155196E+02 -0.26130014984E+03  0.31938511310E+03  0.80313488809E+02 0.  0.
          6    2    1    2  501    0  0.31099392912E+03  0.11010333746E+03 -0.32662796262E+01  0.37202639999E+03  0.17190987417E+03 0.  0.
         24    2    5    5    0    0  0.25110442615E+03  0.30873448831E+02 -0.34487680563E+02  0.26781030864E+03  0.80785881369E+02 0.  0.
          5    1    5    5  501    0  0.59889502962E+02  0.79229888634E+02  0.31221400936E+02  0.10421609134E+03  0.47000000000E+01 0. -1.
        -13    1    6    6    0    0  0.69826621867E+02  0.44089818284E+02 -0.22824911764E+02  0.85677568796E+02  0.00000000000E+00 0.  1.
         14    1    6    6    0    0  0.18127780429E+03 -0.13216369454E+02 -0.11662768799E+02  0.18213273985E+03  0.00000000000E+00 0. -1.
         -5    1    3    3    0  503 -0.17448452250E+03 -0.17130182269E+02 -0.11111609865E+03  0.20762266041E+03  0.47000000000E+01 0.  1.
         13    1    4    4    0    0 -0.23410770515E+02 -0.52936278760E+02 -0.50410160234E+02  0.76756094480E+02  0.00000000000E+00 0. -1.
        -14    1    4    4    0    0 -0.11309863610E+03 -0.40036876437E+02 -0.21088998961E+03  0.24262901862E+03  0.00000000000E+00 0.  1.
</event>
<event>
12    1  0.1596842E-001  0.2083973E+03  0.7818608E-02  0.1142904E+00
         21   -1    0    0  503  502  0.00000000000E+00  0.00000000000E+00  0.38385306042E+03  0.38385306042E+03  0.00000000000E+00 0. -1.
         21   -1    0    0  501  503 -0.00000000000E+00 -0.00000000000E+00 -0.17615988013E+03  0.17615988013E+03  0.00000000000E+00 0.  1.
          6    2    1    2  501    0 -0.11381810271E+03 -0.30498790962E+02 -0.63804440978E+02  0.21794593789E+03  0.17188568410E+03 0.  0.
         24    2    3    3    0    0 -0.49010715538E+02  0.29982666739E+02 -0.81497096171E+02  0.12743005970E+03  0.79345024340E+02 0.  0.
         -6    2    1    2    0  502  0.11381810271E+03  0.30498790962E+02  0.27149762126E+03  0.34206700266E+03  0.17150550780E+03 0.  0.
        -24    2    5    5    0    0  0.28447049706E+02  0.72682304223E+02  0.15075650515E+03  0.18822236479E+03  0.81290729969E+02 0.  0.
          5    1    3    3  501    0 -0.64807387169E+02 -0.60481457701E+02  0.17692655193E+02  0.90515878193E+02  0.47000000000E+01 0. -1.
        -11    1    4    4    0    0 -0.50626244240E+02 -0.13933655099E+02 -0.55348404454E+02  0.76292917272E+02  0.00000000000E+00 0.  1.
         12    1    4    4    0    0  0.16155287017E+01  0.43916321839E+02 -0.26148691717E+02  0.51137142424E+02  0.00000000000E+00 0. -1.
         -5    1    5    5    0  502  0.85371053000E+02 -0.42183513261E+02  0.12074111612E+03  0.15384463787E+03  0.47000000000E+01 0.  1.
         11    1    6    6    0    0  0.53444609966E+02  0.39771711805E+02  0.11792189941E+03  0.13543887830E+03  0.00000000000E+00 0. -1.
        -12    1    6    6    0    0 -0.24997560259E+02  0.32910592418E+02  0.32834605733E+02  0.52783486489E+02  0.00000000000E+00 0.  1.
</event>
<event>
12    1  0.1596842E-001  0.1885723E+03  0.7818608E-02  0.1159954E+00
         21   -1    0    0  501  502  0.00000000000E+00  0.00000000000E+00  0.14126459326E+03  0.14126459326E+03  0.00000000000E+00 0. -1.
         21   -1    0    0  502  503 -0.00000000000E+00 -0.00000000000E+00 -0.44193662957E+03  0.44193662957E+03  0.00000000000E+00 0. -1.
         -6    2    1    2    0  503  0.64687705113E+02 -0.36579568418E+02 -0.34242028979E+03  0.39091067876E+03  0.17331168424E+03 0.  0.
        -24    2    3    3    0    0 -0.30585729895E+02 -0.19237484853E+02 -0.12812002221E+03  0.15569913575E+03  0.80758362333E+02 0.  0.
          6    2    1    2  501    0 -0.64687705113E+02  0.36579568418E+02  0.41748253474E+02  0.19229054407E+03  0.17236639073E+03 0.  0.
         24    2    5    5    0    0 -0.56033844506E+02  0.68945197958E+01  0.90862615964E+02  0.13406338531E+03  0.80806250790E+02 0.  0.
          5    1    5    5  501    0 -0.86538606074E+01  0.29685048623E+02 -0.49114362491E+02  0.58227158766E+02  0.47000000000E+01 0. -1.
        -13    1    6    6    0    0  0.15526696897E+02 -0.11983478184E+02  0.41243537388E+01  0.20042264335E+02  0.00000000000E+00 0.  1.
         14    1    6    6    0    0 -0.71560541403E+02  0.18877997980E+02  0.86738262225E+02  0.11402112097E+03  0.00000000000E+00 0. -1.
         -5    1    3    3    0  503  0.95273435008E+02 -0.17342083565E+02 -0.21430026758E+03  0.23521154301E+03  0.47000000000E+01 0.  1.
         11    1    4    4    0    0  0.43338753195E+01 -0.12965179787E+02 -0.11802272614E+03  0.11881179338E+03  0.00000000000E+00 0. -1.
        -12    1    4    4    0    0 -0.34919605215E+02 -0.62723050661E+01 -0.10097296074E+02  0.36887342371E+02  0.00000000000E+00 0.  1.
</event>
<event>
12    1  0.1596842E-001  0.1807493E+03  0.7818608E-02  0.1171156E+00
         21   -1    0    0  503  502  0.00000000000E+00  0.00000000000E+00  0.21095086678E+03  0.21095086678E+03  0.00000000000E+00 0. -1.
         21   -1    0    0  501  503 -0.00000000000E+00 -0.00000000000E+00 -0.14864534638E+03  0.14864534638E+03  0.00000000000E+00 0. -1.
          6    2    1    2  501    0  0.32434806787E+02  0.34155597724E+02  0.72261836302E+02  0.19465892015E+03  0.17450415657E+03 0.  0.
         24    2    3    3    0    0  0.87079669610E+02  0.42798235045E+02  0.58472716675E+02  0.13744890326E+03  0.77836910454E+02 0.  0.
         -6    2    1    2    0  502 -0.32434806787E+02 -0.34155597724E+02 -0.99563158975E+01  0.16493729301E+03  0.15775474906E+03 0.  0.
        -24    2    5    5    0    0 -0.24148950176E+02  0.12567339582E+02 -0.50929077820E+02  0.10206801983E+03  0.84160560156E+02 0.  0.
          5    1    3    3  501    0 -0.54644862822E+02 -0.86426373202E+01  0.13789119628E+02  0.57210016892E+02  0.47000000000E+01 0. -1.
        -11    1    4    4    0    0  0.47349598057E+02 -0.80882125645E+01  0.54673722428E+02  0.72777878114E+02  0.00000000000E+00 0.  1.
         12    1    4    4    0    0  0.39730071553E+02  0.50886447609E+02  0.37989942472E+01  0.64671025144E+02  0.00000000000E+00 0. -1.
         -5    1    5    5    0  502 -0.82858566111E+01 -0.46722937306E+02  0.40972761923E+02  0.62869273177E+02  0.47000000000E+01 0.  1.
         13    1    6    6    0    0 -0.23148596910E+02 -0.65205789813E+01  0.18318104419E+02  0.30231249373E+02  0.00000000000E+00 0. -1.
        -14    1    6    6    0    0 -0.10003532659E+01  0.19087918563E+02 -0.69247182239E+02  0.71836770458E+02  0.00000000000E+00 0.  1.
</event>
<event>
12    1  0.1596842E-001  0.1828496E+03  0.7818608E-02  0.1165112E+00
         21   -1    0    0  503  502  0.00000000000E+00  0.00000000000E+00  0.99979817190E+02  0.99979817190E+02  0.00000000000E+00 0. -1.
         21   -1    0    0  501  503 -0.00000000000E+00 -0.00000000000E+00 -0.60857236491E+03  0.60857236491E+03  0.00000000000E+00 0. -1.
          6    2    1    2  501    0  0.10603412461E+02  0.61951186332E+02 -0.49215256592E+03  0.52496501620E+03  0.17153349019E+03 0.  0.
         24    2    3    3    0    0 -0.34550611600E+02  0.82459863876E+02 -0.42356643541E+03  0.44019686746E+03  0.79820943399E+02 0.  0.
         -6    2    1    2    0  502 -0.10603412461E+02 -0.61951186332E+02 -0.16439981802E+02  0.18358716589E+03  0.17170787004E+03 0.  0.
        -24    2    5    5    0    0  0.54642361294E+02 -0.64380258357E+02 -0.26231228269E+02  0.11739902578E+03  0.77225958100E+02 0.  0.
          5    1    3    3  501    0  0.45154024061E+02 -0.20508677544E+02 -0.68586130509E+02  0.84768148745E+02  0.47000000000E+01 0. -1.
        -11    1    4    4    0    0 -0.98506221044E+01  0.67290237216E+01 -0.23746138398E+03  0.23776085337E+03  0.00000000000E+00 0.  1.
         12    1    4    4    0    0 -0.24699989495E+02  0.75730840154E+02 -0.18610505143E+03  0.20243601409E+03  0.00000000000E+00 0. -1.
         -5    1    5    5    0  502 -0.65245773755E+02  0.24290720250E+01  0.97912464679E+01  0.66188140110E+02  0.47000000000E+01 0.  1.
         11    1    6    6    0    0  0.33704633180E+02 -0.70015215772E+02 -0.44059997312E+02  0.89327577491E+02  0.00000000000E+00 0. -1.
        -12    1    6    6    0    0  0.20937728114E+02  0.56349574143E+01  0.17828769042E+02  0.28071448292E+02  0.00000000000E+00 0.  1.
</event>
<event>
12    1  0.1596842E-001  0.2399550E+03  0.7818608E-02  0.1119838E+00
         21   -1    0    0  503  502  0.00000000000E+00  0.00000000000E+00  0.22186530818E+03  0.22186530818E+03  0.00000000000E+00 0.  1.
         21   -1    0    0  501  503 -0.00000000000E+00 -0.00000000000E+00 -0.35758954033E+03  0.35758954033E+03  0.00000000000E+00 0. -1.
          6    2    1    2  501    0 -0.91877336160E+02  0.13803363652E+03 -0.21967812246E+03  0.32532580700E+03  0.17344645717E+03 0.  0.
         24    2    3    3    0    0 -0.13002943881E+02  0.32893957249E+02 -0.28058108394E+02  0.92912722808E+02  0.81206081298E+02 0.  0.
         -6    2    1    2    0  502  0.91877336160E+02 -0.13803363652E+03  0.83953890313E+02  0.25412904151E+03  0.17331642834E+03 0.  0.
        -24    2    5    5    0    0  0.13176889828E+03 -0.99637775509E+02  0.66401393435E+02  0.19585590003E+03  0.81606737862E+02 0.  0.
          5    1    3    3  501    0 -0.78874392279E+02  0.10513967927E+03 -0.19162001407E+03  0.23241308420E+03  0.47000000000E+01 0. -1.
        -11    1    4    4    0    0 -0.92613832889E+00 -0.26156833635E+02  0.58525474877E+00  0.26179767018E+02  0.00000000000E+00 0.  1.
         12    1    4    4    0    0 -0.12076805552E+02  0.59050790884E+02 -0.28643363143E+02  0.66732955790E+02  0.00000000000E+00 0. -1.
         -5    1    5    5    0  502 -0.39891562124E+02 -0.38395861006E+02  0.17552496878E+02  0.58273141478E+02  0.47000000000E+01 0.  1.
         11    1    6    6    0    0  0.39095300958E+02 -0.48035461107E+02 -0.13091633984E+02  0.63302756347E+02  0.00000000000E+00 0. -1.
        -12    1    6    6    0    0  0.92673597326E+02 -0.51602314403E+02  0.79493027419E+02  0.13255314369E+03  0.00000000000E+00 0.  1.
</event>
<event>
12    1  0.1596842E-001  0.1828980E+03  0.7818608E-02  0.1165235E+00
         21   -1    0    0  501  502  0.00000000000E+00  0.00000000000E+00  0.44228594373E+02  0.44228594373E+02  0.00000000000E+00 0.  1.
         21   -1    0    0  502  503 -0.00000000000E+00 -0.00000000000E+00 -0.13837821146E+04  0.13837821146E+04  0.00000000000E+00 0.  1.
         -6    2    1    2    0  503 -0.29457387684E+02 -0.51346188912E+02 -0.11528208537E+04  0.11672393015E+04  0.17305345274E+03 0.  0.
        -24    2    3    3    0    0  0.14047724986E+02 -0.77374006055E+02 -0.49419450077E+03  0.50664797184E+03  0.79245740477E+02 0.  0.
          6    2    1    2  501    0  0.29457387684E+02  0.51346188912E+02 -0.18673266657E+03  0.26077140748E+03  0.17212922294E+03 0.  0.
         24    2    5    5    0    0  0.10802303837E+02  0.86527989981E+02 -0.18789210715E+03  0.22065650274E+03  0.76039893823E+02 0.  0.
          5    1    5    5  501    0  0.18655083847E+02 -0.35181801068E+02  0.11594405891E+01  0.40114904739E+02  0.47000000000E+01 0. -1.
        -13    1    6    6    0    0  0.25206425054E+02  0.64928262779E+02 -0.65735834209E+02  0.95771828168E+02  0.00000000000E+00 0.  1.
         14    1    6    6    0    0 -0.14404121217E+02  0.21599727201E+02 -0.12215627295E+03  0.12488467457E+03  0.00000000000E+00 0. -1.
         -5    1    3    3    0  503 -0.43505112670E+02  0.26027817143E+02 -0.65862635288E+03  0.66059132965E+03  0.47000000000E+01 0.  1.
         11    1    4    4    0    0 -0.19035584130E+02 -0.37577676489E+02 -0.92579377476E+02  0.10171222329E+03  0.00000000000E+00 0. -1.
        -12    1    4    4    0    0  0.33083309116E+02 -0.39796329567E+02 -0.40161512330E+03  0.40493574854E+03  0.00000000000E+00 0.  1.
</event>
<event>
12    1  0.1596842E-001  0.2514929E+03  0.7818608E-02  0.1112958E+00
         21   -1    0    0  501  502  0.00000000000E+00  0.00000000000E+00  0.35974911657E+03  0.35974911657E+03  0.00000000000E+00 0.  1.
         21   -1    0    0  502  503 -0.00000000000E+00 -0.00000000000E+00 -0.28022992008E+03  0.28022992008E+03  0.00000000000E+00 0. -1.
         -6    2    1    2    0  503  0.35905835534E+02 -0.17773042695E+03 -0.15780915168E+03  0.29690472601E+03  0.17427379116E+03 0.  0.
        -24    2    3    3    0    0  0.89845511700E+02 -0.14283614897E+03 -0.11756566884E+03  0.22095258837E+03  0.80771148276E+02 0.  0.
          6    2    1    2  501    0 -0.35905835534E+02  0.17773042695E+03  0.23732834817E+03  0.34307431064E+03  0.16881322249E+03 0.  0.
         24    2    5    5    0    0 -0.69834873119E+02  0.16071960731E+03  0.13815342096E+03  0.23678083124E+03  0.79190230726E+02 0.  0.
          5    1    5    5  501    0  0.33929037585E+02  0.17010819639E+02  0.99174927207E+02  0.10629347940E+03  0.47000000000E+01 0. -1.
        -13    1    6    6    0    0 -0.67571428911E+02  0.77673223793E+02  0.10580759204E+03  0.14762883943E+03  0.00000000000E+00 0.  1.
         14    1    6    6    0    0 -0.22634442077E+01  0.83046383515E+02  0.32345828929E+02  0.89151991810E+02  0.00000000000E+00 0. -1.
         -5    1    3    3    0  503 -0.53939676166E+02 -0.34894277976E+02 -0.40243482836E+02  0.75952137634E+02  0.47000000000E+01 0.  1.
         13    1    4    4    0    0  0.72981537044E+02 -0.11818687042E+03 -0.50959802281E+02  0.14795723212E+03  0.00000000000E+00 0. -1.
        -14    1    4    4    0    0  0.16863974656E+02 -0.24649278555E+02 -0.66605866559E+02  0.72995356254E+02  0.00000000000E+00 0.  1.
</event>
<event>
12    1  0.1596842E-001  0.3785990E+03  0.7818608E-02  0.1051462E+00
         21   -1    0    0  503  502  0.00000000000E+00  0.00000000000E+00  0.21884068025E+03  0.21884068025E+03  0.00000000000E+00 0.  1.
         21   -1    0    0  501  503 -0.00000000000E+00 -0.00000000000E+00 -0.10663148621E+04  0.10663148621E+04  0.00000000000E+00 0. -1.
          6    2    1    2  501    0 -0.50991653454E+01 -0.33774624901E+03 -0.24592564788E+02  0.37939684854E+03  0.17099311164E+03 0.  0.
         24    2    3    3    0    0  0.83741229730E+01 -0.16395532842E+03  0.50831772306E+02  0.18940807465E+03  0.79624581711E+02 0.  0.
         -6    2    1    2    0  502  0.50991653454E+01  0.33774624901E+03 -0.82288161704E+03  0.90575869379E+03  0.17078092841E+03 0.  0.
        -24    2    5    5    0    0  0.69930429323E+02  0.19028394197E+03 -0.47681718528E+03  0.52401151867E+03  0.78327517517E+02 0.  0.
          5    1    3    3  501    0 -0.13473288318E+02 -0.17379092059E+03 -0.75424337094E+02  0.18998877389E+03  0.47000000000E+01 0. -1.
        -13    1    4    4    0    0  0.99275012629E+01 -0.17205477288E+03  0.53954996538E+02  0.18058942882E+03  0.00000000000E+00 0.  1.
         14    1    4    4    0    0 -0.15533782899E+01  0.80994444548E+01 -0.31232242325E+01  0.88186458254E+01  0.00000000000E+00 0. -1.
         -5    1    5    5    0  502 -0.64831263977E+02  0.14746230704E+03 -0.34606443176E+03  0.38174717512E+03  0.47000000000E+01 0.  1.
         13    1    6    6    0    0  0.76010751078E+02  0.19244532135E+03 -0.43504339650E+03  0.48174224730E+03  0.00000000000E+00 0. -1.
        -14    1    6    6    0    0 -0.60803217550E+01 -0.21613793788E+01 -0.41773788779E+02  0.42269271373E+02  0.00000000000E+00 0.  1.
</event>
<event>
12    1  0.1596842E-001  0.1808221E+03  0.7818608E-02  0.1167187E+00
         21   -1    0    0  501  502  0.00000000000E+00  0.00000000000E+00  0.20733522641E+02  0.20733522641E+02  0.00000000000E+00 0. -1.
         21   -1    0    0  502  503 -0.00000000000E+00 -0.00000000000E+00 -0.28792568657E+04  0.28792568657E+04  0.00000000000E+00 0. -1.
         -6    2    1    2    0  503 -0.49036492412E+02 -0.28972205627E+02 -0.24052253369E+04  0.24119579082E+04  0.17084514362E+03 0.  0.
        -24    2    3    3    0    0 -0.66307222985E+02  0.22448714136E+02 -0.95864772719E+03  0.96435600843E+03  0.77951610447E+02 0.  0.
          6    2    1    2  501    0  0.49036492412E+02  0.28972205627E+02 -0.45329800616E+03  0.48803248020E+03  0.17161775274E+03 0.  0.
         24    2    5    5    0    0  0.32598968171E+02 -0.32038212744E+02 -0.38513413168E+03  0.39496870026E+03  0.74718371219E+02 0.  0.
          5    1    5    5  501    0  0.16437524241E+02  0.61010418371E+02 -0.68163874485E+02  0.93063779946E+02  0.47000000000E+01 0. -1.
        -13    1    6    6    0    0  0.21770561791E+02  0.22371727651E+02 -0.16685726618E+03  0.16975216887E+03  0.00000000000E+00 0.  1.
         14    1    6    6    0    0  0.10828406380E+02 -0.54409940395E+02 -0.21827686549E+03  0.22521653138E+03  0.00000000000E+00 0. -1.
         -5    1    3    3    0  503  0.17270730573E+02 -0.51420919763E+02 -0.14465776097E+04  0.14476018997E+04  0.47000000000E+01 0.  1.
         11    1    4    4    0    0 -0.61238963549E+02 -0.86092413673E+01 -0.81294288519E+03  0.81529164370E+03  0.00000000000E+00 0. -1.
        -12    1    4    4    0    0 -0.50682594364E+01  0.31057955504E+02 -0.14570484199E+03  0.14906436473E+03  0.00000000000E+00 0.  1.
</event>
<event>
12    1  0.1596842E-001  0.2135047E+03  0.7818608E-02  0.1139263E+00
         21   -1    0    0  503  502  0.00000000000E+00  0.00000000000E+00  0.48767110412E+03  0.48767110412E+03  0.00000000000E+00 0. -1.
         21   -1    0    0  501  503 -0.00000000000E+00 -0.00000000000E+00 -0.13322553502E+03  0.13322553502E+03  0.00000000000E+00 0.  1.
          6    2    1    2  501    0  0.95945414647E+02  0.77020939788E+02  0.48804648622E+01  0.21128703146E+03  0.17169928063E+03 0.  0.
         24    2    3    3    0    0  0.36119719572E+02  0.58175009223E+02  0.68712570709E+02  0.12167168330E+03  0.73441237071E+02 0.  0.
         -6    2    1    2    0  502 -0.95945414647E+02 -0.77020939788E+02  0.34956510424E+03  0.40960960767E+03  0.17448931440E+03 0.  0.
        -24    2    5    5    0    0 -0.10092814595E+03 -0.71314193441E+02  0.36400071812E+03  0.39264283092E+03  0.79997906525E+02 0.  0.
          5    1    3    3  501    0  0.59825695075E+02  0.18845930565E+02 -0.63832105847E+02  0.89615348166E+02  0.47000000000E+01 0. -1.
        -11    1    4    4    0    0  0.40960548627E+02  0.19853074373E+01  0.14649863087E+02  0.43546830860E+02  0.00000000000E+00 0.  1.
         12    1    4    4    0    0 -0.48408290552E+01  0.56189701786E+02  0.54062707622E+02  0.78124852436E+02  0.00000000000E+00 0. -1.
         -5    1    5    5    0  502  0.49827313042E+01 -0.57067463474E+01 -0.14435613886E+02  0.16966776753E+02  0.47000000000E+01 0.  1.
         13    1    6    6    0    0 -0.76486368883E+02 -0.45152581035E+02  0.13999225677E+03  0.16579129095E+03  0.00000000000E+00 0. -1.
        -14    1    6    6    0    0 -0.24441777068E+02 -0.26161612405E+02  0.22400846135E+03  0.22685153997E+03  0.00000000000E+00 0.  1.
</event>
<event>
12    1  0.1596842E-001  0.1809577E+03  0.7818608E-02  0.1167618E+00
         21   -1    0    0  501  502  0.00000000000E+00  0.00000000000E+00  0.56579534768E+02  0.56579534768E+02  0.00000000000E+00 0. -1.
         21   -1    0    0  502  503 -0.00000000000E+00 -0.00000000000E+00 -0.96170801968E+03  0.96170801968E+03  0.00000000000E+00 0. -1.
         -6    2    1    2    0  503 -0.20871422383E+01  0.54037359764E+02 -0.78015886384E+03  0.80087050110E+03  0.17268848918E+03 0.  0.
        -24    2    3    3    0    0 -0.38886088412E+02  0.88639540990E+02 -0.63805689998E+03  0.64998467832E+03  0.77423370732E+02 0.  0.
          6    2    1    2  501    0  0.20871422383E+01 -0.54037359764E+02 -0.12496962108E+03  0.21741705335E+03  0.16949447331E+03 0.  0.
         24    2    5    5    0    0 -0.98668321934E+01  0.21333601504E+02 -0.10863495949E+03  0.13923399587E+03  0.83857463909E+02 0.  0.
          5    1    5    5  501    0  0.11953974432E+02 -0.75370961268E+02 -0.16334661589E+02  0.78183057477E+02  0.47000000000E+01 0. -1.
        -11    1    6    6    0    0 -0.17963712164E+02  0.16952511019E+02 -0.12118099669E+03  0.12367261841E+03  0.00000000000E+00 0.  1.
         12    1    6    6    0    0  0.80968799704E+01  0.43810904856E+01  0.12546037204E+02  0.15561377466E+02  0.00000000000E+00 0. -1.
         -5    1    3    3    0  503  0.36798946174E+02 -0.34602181226E+02 -0.14210196386E+03  0.15088582278E+03  0.47000000000E+01 0.  1.
         13    1    4    4    0    0 -0.17318928759E+01  0.51599030156E+02 -0.14078514595E+03  0.14995304827E+03  0.00000000000E+00 0. -1.
        -14    1    4    4    0    0 -0.37154195536E+02  0.37040510834E+02 -0.49727175403E+03  0.50003163005E+03  0.00000000000E+00 0.  1.
</event>
<event>
12    1  0.1596842E-001  0.1803476E+03  0.7818608E-02  0.1168145E+00
         21   -1    0    0  503  502  0.00000000000E+00  0.00000000000E+00  0.13428231370E+03  0.13428231370E+03  0.00000000000E+00 0.  1.
         21   -1    0    0  501  503 -0.00000000000E+00 -0.00000000000E+00 -0.27892120269E+03  0.27892120269E+03  0.00000000000E+00 0.  1.
          6    2    1    2  501    0 -0.30031142345E+02 -0.34571615865E+02 -0.15145769728E+03  0.23550939800E+03  0.17443674024E+03 0.  0.
         24    2    3    3    0    0  0.14510042561E+01  0.24384544896E+02 -0.18647742578E+02  0.86756150926E+02  0.81130635256E+02 0.  0.
         -6    2    1    2    0  502  0.30031142345E+02  0.34571615865E+02  0.68188082869E+01  0.17769411839E+03  0.17155651381E+03 0.  0.
        -24    2    5    5    0    0  0.55849941247E+02 -0.33608022157E+02  0.88684083526E+01  0.10460948062E+03  0.81337443275E+02 0.  0.
          5    1    3    3  501    0 -0.31482146601E+02 -0.58956160761E+02 -0.13280995470E+03  0.14875324707E+03  0.47000000000E+01 0. -1.
        -13    1    4    4    0    0  0.27501135749E+02 -0.49674705553E+01 -0.34527835477E+02  0.44420261750E+02  0.00000000000E+00 0.  1.
         14    1    4    4    0    0 -0.26050131493E+02  0.29352015451E+02  0.15880092899E+02  0.42335889176E+02  0.00000000000E+00 0. -1.
         -5    1    5    5    0  502 -0.25818798902E+02  0.68179638022E+02 -0.20496000657E+01  0.73084637770E+02  0.47000000000E+01 0.  1.
         13    1    6    6    0    0  0.13238605317E+02 -0.40196337536E+02 -0.25553784300E+02  0.49436849759E+02  0.00000000000E+00 0. -1.
        -14    1    6    6    0    0  0.42611335930E+02  0.65883153793E+01  0.34422192652E+02  0.55172630862E+02  0.00000000000E+00 0.  1.
</event>
<event>
12    1  0.1596842E-001  0.1816575E+03  0.7818608E-02  0.1166377E+00
         21   -1    0    0  503  502  0.00000000000E+00  0.00000000000E+00  0.78756769899E+02  0.78756769899E+02  0.00000000000E+00 0.  1.
         21   -1    0    0  501  503 -0.00000000000E+00 -0.00000000000E+00 -0.62321729446E+03  0.62321729446E+03  0.00000000000E+00 0.  1.
          6    2    1    2  501    0 -0.35680493206E+02  0.48607773639E+02 -0.47358683624E+03  0.50698038461E+03  0.17061302902E+03 0.  0.
         24    2    3    3    0    0 -0.60663050591E+01 -0.34948174071E+02 -0.28845561134E+03  0.30166536576E+03  0.80852818465E+02 0.  0.
         -6    2    1    2    0  502  0.35680493206E+02 -0.48607773639E+02 -0.70873688321E+02  0.19499367974E+03  0.17135822767E+03 0.  0.
        -24    2    5    5    0    0  0.32791273161E+02 -0.67320863930E+02 -0.10775334864E+03  0.15327166295E+03  0.79208914927E+02 0.  0.
          5    1    3    3  501    0 -0.29614188147E+02  0.83555947710E+02 -0.18513122489E+03  0.20531501885E+03  0.47000000000E+01 0. -1.
        -11    1    4    4    0    0 -0.19475632044E+02  0.18192454044E+02 -0.46645933993E+02  0.53722516562E+02  0.00000000000E+00 0.  1.
         12    1    4    4    0    0  0.13409326985E+02 -0.53140628115E+02 -0.24180967735E+03  0.24794284920E+03  0.00000000000E+00 0. -1.
         -5    1    5    5    0  502  0.28892200447E+01  0.18713090291E+02  0.36879660314E+02  0.41722016797E+02  0.47000000000E+01 0.  1.
         11    1    6    6    0    0  0.32756605357E+02 -0.83638756584E+02 -0.76379207774E+02  0.11790767650E+03  0.00000000000E+00 0. -1.
        -12    1    6    6    0    0  0.34667804662E-01  0.16317892654E+02 -0.31374140862E+02  0.35363986446E+02  0.00000000000E+00 0.  1.
</event>
<event>
12    1  0.1596842E-001  0.2854751E+03  0.7818608E-02  0.1092759E+00
         21   -1    0    0  503  502  0.00000000000E+00  0.00000000000E+00  0.57404931156E+03  0.57404931156E+03  0.00000000000E+00 0.  1.
         21   -1    0    0  501  503 -0.00000000000E+00 -0.00000000000E+00 -0.21462034377E+03  0.21462034377E+03  0.00000000000E+00 0. -1.
          6    2    1    2  501    0 -0.31027075217E+02 -0.22521762483E+03 -0.49822446839E+02  0.28979009954E+03  0.17265679150E+03 0.  0.
         24    2    3    3    0    0  0.14721635903E+02 -0.97678822365E+02 -0.81737825491E+02  0.15050703489E+03  0.78825227767E+02 0.  0.
         -6    2    1    2    0  502  0.31027075217E+02  0.22521762483E+03  0.40925141462E+03  0.49887955580E+03  0.17236134394E+03 0.  0.
        -24    2    5    5    0    0  0.85093147458E+02  0.17807302103E+03  0.29755412384E+03  0.36604835237E+03  0.80635569660E+02 0.  0.
          5    1    3    3  501    0 -0.45748711120E+02 -0.12753880247E+03  0.31915378652E+02  0.13928306465E+03  0.47000000000E+01 0. -1.
        -13    1    4    4    0    0  0.40045210982E+02 -0.72154574941E+02 -0.30639560487E+02  0.88026611171E+02  0.00000000000E+00 0.  1.
         14    1    4    4    0    0 -0.25323575079E+02 -0.25524247425E+02 -0.51098265004E+02  0.62480423716E+02  0.00000000000E+00 0. -1.
         -5    1    5    5    0  502 -0.54066072241E+02  0.47144603806E+02  0.11169729078E+03  0.13283120343E+03  0.47000000000E+01 0.  1.
         11    1    6    6    0    0  0.30208203581E+02  0.10442300058E+03  0.97949812634E+02  0.14632451746E+03  0.00000000000E+00 0. -1.
        -12    1    6    6    0    0  0.54884943876E+02  0.73650020449E+02  0.19960431121E+03  0.21972383491E+03  0.00000000000E+00 0.  1.
</event>
<event>
12    1  0.1596842E-001  0.1949964E+03  0.7818608E-02  0.1154216E+00
         21   -1    0    0  503  502  0.00000000000E+00  0.00000000000E+00  0.13403455555E+03  0.13403455555E+03  0.00000000000E+00 0.  1.
         21   -1    0    0  501  503 -0.00000000000E+00 -0.00000000000E+00 -0.32945993657E+03  0.32945993657E+03  0.00000000000E+00 0.  1.
          6    2    1    2  501    0 -0.72077085448E+01 -0.90661719926E+02 -0.18543401685E+03  0.26908992223E+03  0.17248800862E+03 0.  0.
         24    2    3    3    0    0 -0.29436803045E+02 -0.10883914425E+03 -0.83317262927E+02  0.16290860170E+03  0.82975668191E+02 0.  0.
         -6    2    1    2    0  502  0.72077085448E+01  0.90661719926E+02 -0.99913641694E+01  0.19440456988E+03  0.17152787211E+03 0.  0.
        -24    2    5    5    0    0 -0.56254066105E+02  0.70033436479E+02 -0.31752455070E+02  0.12405858210E+03  0.79455089277E+02 0.  0.
          5    1    3    3  501    0  0.22229094500E+02  0.18177424327E+02 -0.10211675392E+03  0.10618132053E+03  0.47000000000E+01 0. -1.
        -13    1    4    4    0    0 -0.10403147638E+02 -0.10741526020E+03 -0.92121053381E+02  0.14188922468E+03  0.00000000000E+00 0.  1.
         14    1    4    4    0    0 -0.19033655406E+02 -0.14238840495E+01  0.88037904533E+01  0.21019377019E+02  0.00000000000E+00 0. -1.
         -5    1    5    5    0  502  0.63461774650E+02  0.20628283448E+02  0.21761090901E+02  0.70345987781E+02  0.47000000000E+01 0.  1.
         13    1    6    6    0    0  0.13185917517E+02 -0.13697662975E+01  0.94412938848E+01  0.16275217685E+02  0.00000000000E+00 0. -1.
        -14    1    6    6    0    0 -0.69439983622E+02  0.71403202776E+02 -0.41193748955E+02  0.10778336442E+03  0.00000000000E+00 0.  1.
</event>
<event>
12    1  0.1596842E-001  0.2788547E+03  0.7818608E-02  0.1096933E+00
         21   -1    0    0  503  502  0.00000000000E+00  0.00000000000E+00  0.42670894329E+02  0.42670894329E+02  0.00000000000E+00 0. -1.
         21   -1    0    0  501  503 -0.00000000000E+00 -0.00000000000E+00 -0.18030245197E+04  0.18030245197E+04  0.00000000000E+00 0. -1.
          6    2    1    2  501    0 -0.13201179580E+02  0.21277810586E+03 -0.95491427356E+03  0.99479705769E+03  0.17975294895E+03 0.  0.
         24    2    3    3    0    0  0.35554132544E+02  0.11008783115E+03 -0.31863838318E+03  0.34842915033E+03  0.80554494947E+02 0.  0.
         -6    2    1    2    0  502  0.13201179580E+02 -0.21277810586E+03 -0.80543935181E+03  0.85089835635E+03  0.17276188789E+03 0.  0.
        -24    2    5    5    0    0  0.19266999602E+02 -0.66359246483E+02 -0.51388920912E+03  0.52455673740E+03  0.79390708724E+02 0.  0.
          5    1    3    3  501    0 -0.48755312124E+02  0.10269027471E+03 -0.63627589038E+03  0.64636790735E+03  0.47000000000E+01 0. -1.
        -11    1    4    4    0    0  0.89610077947E+01  0.71586273027E+01 -0.14059597997E+03  0.14106301850E+03  0.00000000000E+00 0.  1.
         12    1    4    4    0    0  0.26593124749E+02  0.10292920384E+03 -0.17804240322E+03  0.20736613183E+03  0.00000000000E+00 0. -1.
         -5    1    5    5    0  502 -0.60658200211E+01 -0.14641885938E+03 -0.29155014269E+03  0.32634161895E+03  0.47000000000E+01 0.  1.
         13    1    6    6    0    0 -0.23749013208E+02 -0.38078271768E+02 -0.34749605206E+03  0.35038190108E+03  0.00000000000E+00 0. -1.
        -14    1    6    6    0    0  0.43016012809E+02 -0.28280974715E+02 -0.16639315706E+03  0.17417483632E+03  0.00000000000E+00 0.  1.
</event>
<event>
12    1  0.1596842E-001  0.1799330E+03  0.7818608E-02  0.1168124E+00
         21   -1    0    0  503  502  0.00000000000E+00  0.00000000000E+00  0.32879861287E+03  0.32879861287E+03  0.00000000000E+00 0.  1.
         21   -1    0    0  501  503 -0.00000000000E+00 -0.00000000000E+00 -0.11929590786E+03  0.11929590786E+03  0.00000000000E+00 0.  1.
          6    2    1    2  501    0  0.46944376246E+02  0.19632992321E+02  0.95975660342E+01  0.17913738675E+03  0.17149011986E+03 0.  0.
         24    2    3    3    0    0 -0.39760993649E+01 -0.25757871704E+02 -0.41148866644E+02  0.93987426075E+02  0.80381152724E+02 0.  0.
         -6    2    1    2    0  502 -0.46944376246E+02 -0.19632992321E+02  0.19990513898E+03  0.26895713398E+03  0.17258808325E+03 0.  0.
        -24    2    5    5    0    0 -0.74875653599E+02  0.27041624542E+02  0.84630862027E+02  0.14140743762E+03  0.80598186378E+02 0.  0.
          5    1    3    3  501    0  0.50920475611E+02  0.45390864024E+02  0.50746432678E+02  0.85149960674E+02  0.47000000000E+01 0. -1.
        -11    1    4    4    0    0  0.31749916181E+02  0.10399430625E+02 -0.19958602263E+02  0.38917234474E+02  0.00000000000E+00 0.  1.
         12    1    4    4    0    0 -0.35726015546E+02 -0.36157302329E+02 -0.21190264381E+02  0.55070191601E+02  0.00000000000E+00 0. -1.
         -5    1    5    5    0  502  0.27931277353E+02 -0.46674616863E+02  0.11527427695E+03  0.12754969635E+03  0.47000000000E+01 0.  1.
         11    1    6    6    0    0 -0.36681501743E+02 -0.22834070659E+02  0.10935052055E+02  0.44570199870E+02  0.00000000000E+00 0. -1.
        -12    1    6    6    0    0 -0.38194151856E+02  0.49875695202E+02  0.73695809973E+02  0.96837237752E+02  0.00000000000E+00 0.  1.
</event>
<event>
12    1  0.1596842E-001  0.2210517E+03  0.7818608E-02  0.1133840E+00
         21   -1    0    0  501  502  0.00000000000E+00  0.00000000000E+00  0.51100376953E+02  0.51100376953E+02  0.00000000000E+00 0. -1.
         21   -1    0    0  502  503 -0.00000000000E+00 -0.00000000000E+00 -0.10610147244E+04  0.10610147244E+04  0.00000000000E+00 0. -1.
         -6    2    1    2    0  503  0.13554350104E+03 -0.21414459328E+02 -0.69736224980E+03  0.73155858784E+03  0.17330101056E+03 0.  0.
        -24    2    3    3    0    0  0.35904196568E+02 -0.13170288443E+02 -0.52204847549E+03  0.52968494714E+03  0.81049149495E+02 0.  0.
          6    2    1    2  501    0 -0.13554350104E+03  0.21414459328E+02 -0.31255209767E+03  0.38055651354E+03  0.16823741109E+03 0.  0.
         24    2    5    5    0    0 -0.85215324793E+02 -0.46144757350E+02 -0.13850689313E+03  0.18713728929E+03  0.80282098803E+02 0.  0.
          5    1    5    5  501    0 -0.50328176245E+02  0.67559216678E+02 -0.17404520455E+03  0.19341922425E+03  0.47000000000E+01 0. -1.
        -11    1    6    6    0    0  0.94851316000E+01 -0.23978373437E+01 -0.48134388622E+02  0.49118598447E+02  0.00000000000E+00 0.  1.
         12    1    6    6    0    0 -0.94700456393E+02 -0.43746920006E+02 -0.90372504504E+02  0.13801869084E+03  0.00000000000E+00 0. -1.
         -5    1    3    3    0  503  0.99639304470E+02 -0.82441708852E+01 -0.17531377430E+03  0.20187364070E+03  0.47000000000E+01 0.  1.
         11    1    4    4    0    0  0.29235429788E+02 -0.25106382324E+02 -0.51002155895E+03  0.51147534777E+03  0.00000000000E+00 0. -1.
        -12    1    4    4    0    0  0.66687667803E+01  0.11936093881E+02 -0.12026916544E+02  0.18209599366E+02  0.00000000000E+00 0.  1.
</event>
<event>
12    1  0.1596842E-001  0.2195985E+03  0.7818608E-02  0.1134216E+00
         21   -1    0    0  501  502  0.00000000000E+00  0.00000000000E+00  0.65964744592E+03  0.65964744592E+03  0.00000000000E+00 0. -1.
         21   -1    0    0  502  503 -0.00000000000E+00 -0.00000000000E+00 -0.14891623052E+03  0.14891623052E+03  0.00000000000E+00 0. -1.
         -6    2    1    2    0  503  0.61924501753E+02 -0.12134099584E+03 -0.33152322447E+02  0.22208682937E+03  0.17223589089E+03 0.  0.
        -24    2    3    3    0    0  0.10802047964E+03 -0.10052534693E+03 -0.10699567323E+02  0.16654993506E+03  0.76489415813E+02 0.  0.
          6    2    1    2  501    0 -0.61924501753E+02  0.12134099584E+03  0.54388353784E+03  0.58647684707E+03  0.17201019802E+03 0.  0.
         24    2    5    5    0    0 -0.10257263346E+03  0.38171008857E+02  0.26284747479E+03  0.29054970049E+03  0.57897861783E+02 0.  0.
          5    1    5    5  501    0  0.40648131712E+02  0.83169986983E+02  0.28103606305E+03  0.29592714658E+03  0.47000000000E+01 0. -1.
        -13    1    6    6    0    0 -0.52784608262E+02  0.33633746901E+01  0.66211554960E+02  0.84743714628E+02  0.00000000000E+00 0.  1.
         14    1    6    6    0    0 -0.49788025202E+02  0.34807634167E+02  0.19663591983E+03  0.20580598586E+03  0.00000000000E+00 0. -1.
         -5    1    3    3    0  503 -0.46095977889E+02 -0.20815648915E+02 -0.22452755124E+02  0.55536894313E+02  0.47000000000E+01 0. -1.
         11    1    4    4    0    0  0.39529815923E+02 -0.39564766618E+01 -0.25545020991E+02  0.47231431822E+02  0.00000000000E+00 0. -1.
        -12    1    4    4    0    0  0.68490663719E+02 -0.96568870264E+02  0.14845453668E+02  0.11931850324E+03  0.00000000000E+00 0.  1.
</event>
<event>
12    1  0.1596842E-001  0.1843316E+03  0.7818608E-02  0.1163757E+00
         21   -1    0    0  503  502  0.00000000000E+00  0.00000000000E+00  0.37855863819E+02  0.37855863819E+02  0.00000000000E+00 0. -1.
         21   -1    0    0  501  503 -0.00000000000E+00 -0.00000000000E+00 -0.11621024781E+04  0.11621024781E+04  0.00000000000E+00 0.  1.
          6    2    1    2  501    0  0.47827250738E+02 -0.43981952701E+02 -0.84888570225E+03  0.86859486453E+03  0.17212857148E+03 0.  0.
         24    2    3    3    0    0  0.78111008033E+02 -0.24461982651E+02 -0.34808920537E+03  0.36648197237E+03  0.80269689187E+02 0.  0.
         -6    2    1    2    0  502 -0.47827250738E+02  0.43981952701E+02 -0.27536091200E+03  0.33136347736E+03  0.17250004114E+03 0.  0.
        -24    2    5    5    0    0 -0.40638989156E+02 -0.40116572786E+02 -0.15091335011E+03  0.18091907317E+03  0.81829120376E+02 0.  0.
          5    1    3    3  501    0 -0.30283757295E+02 -0.19519970050E+02 -0.50079649688E+03  0.50211289216E+03  0.47000000000E+01 0. -1.
        -13    1    4    4    0    0  0.50160575622E+02 -0.12188039618E+02 -0.32262627978E+03  0.32672977835E+03  0.00000000000E+00 0.  1.
         14    1    4    4    0    0  0.27950432411E+02 -0.12273943033E+02 -0.25462925598E+02  0.39752194022E+02  0.00000000000E+00 0. -1.
         -5    1    5    5    0  502 -0.71882615821E+01  0.84098525488E+02 -0.12444756189E+03  0.15044440419E+03  0.47000000000E+01 0.  1.
         11    1    6    6    0    0 -0.18451854185E+02 -0.16893359475E+01  0.46893902055E+01  0.19113219491E+02  0.00000000000E+00 0. -1.
        -12    1    6    6    0    0 -0.22187134971E+02 -0.38427236839E+02 -0.15560274032E+03  0.16180585367E+03  0.00000000000E+00 0.  1.
</event>
<event>
12    1  0.1596842E-001  0.2382180E+03  0.7818608E-02  0.1122936E+00
         21   -1    0    0  503  502  0.00000000000E+00  0.00000000000E+00  0.53123257575E+03  0.53123257575E+03  0.00000000000E+00 0. -1.
         21   -1    0    0  501  503 -0.00000000000E+00 -0.00000000000E+00 -0.10283546182E+03  0.10283546182E+03  0.00000000000E+00 0.  1.
          6    2    1    2  501    0  0.16008424968E+03 -0.38042382948E+02  0.17746589965E+03  0.28807051196E+03  0.15625711000E+03 0.  0.
         24    2    3    3    0    0  0.98996467788E+02  0.31608602804E+02  0.80256420638E+02  0.15370254806E+03  0.79899786115E+02 0.  0.
         -6    2    1    2    0  502 -0.16008424968E+03  0.38042382948E+02  0.25093121429E+03  0.34599752561E+03  0.17226033648E+03 0.  0.
        -24    2    5    5    0    0 -0.79386618898E+02  0.32630513673E+02  0.23639703356E+03  0.26368878760E+03  0.79254233620E+02 0.  0.
          5    1    3    3  501    0  0.61087781893E+02 -0.69650985752E+02  0.97209479008E+02  0.13436796390E+03  0.47000000000E+01 0. -1.
        -11    1    4    4    0    0  0.39258559570E+02  0.41754802248E+02  0.72798922381E+02  0.92651935274E+02  0.00000000000E+00 0.  1.
         12    1    4    4    0    0  0.59737908218E+02 -0.10146199444E+02  0.74574982569E+01  0.61050612787E+02  0.00000000000E+00 0. -1.
         -5    1    5    5    0  502 -0.80697630783E+02  0.54118692748E+01  0.14534180728E+02  0.82308738008E+02  0.47000000000E+01 0.  1.
         11    1    6    6    0    0 -0.70809114862E+02  0.56570595555E+02  0.19622044780E+03  0.21614029510E+03  0.00000000000E+00 0. -1.
        -12    1    6    6    0    0 -0.85775040363E+01 -0.23940081882E+02  0.40176585759E+02  0.47548492503E+02  0.00000000000E+00 0.  1.
</event>
<event>
12    1  0.1596842E-001  0.1971170E+03  0.7818608E-02  0.1152321E+00
         21   -1    0    0  501  502  0.00000000000E+00  0.00000000000E+00  0.52590623080E+03  0.52590623080E+03  0.00000000000E+00 0.  1.
         21   -1    0    0  502  503 -0.00000000000E+00 -0.00000000000E+00 -0.17523537270E+03  0.17523537270E+03  0.00000000000E+00 0.  1.
         -6    2    1    2    0  503 -0.95102463659E+02  0.20606429034E+02 -0.91458794088E+02  0.21730123435E+03  0.17142348708E+03 0.  0.
        -24    2    3    3    0    0 -0.11184199176E+03  0.25640420738E+02 -0.17717945632E+02  0.14137129556E+03  0.80658882428E+02 0.  0.
          6    2    1    2  501    0  0.95102463659E+02 -0.20606429034E+02  0.44212965218E+03  0.48384036915E+03  0.17074475092E+03 0.  0.
         24    2    5    5    0    0  0.83185225537E+02 -0.77713098808E+02  0.28533911798E+03  0.31648280609E+03  0.76051606349E+02 0.  0.
          5    1    5    5  501    0  0.11917238123E+02  0.57106669774E+02  0.15679053420E+03  0.16735756305E+03  0.47000000000E+01 0. -1.
        -11    1    6    6    0    0  0.52251970543E+02 -0.98538179905E+01  0.17804994747E+03  0.18582020866E+03  0.00000000000E+00 0.  1.
         12    1    6    6    0    0  0.30933254993E+02 -0.67859280817E+02  0.10728917052E+03  0.13066259743E+03  0.00000000000E+00 0. -1.
         -5    1    3    3    0  503  0.16739528099E+02 -0.50339917037E+01 -0.73740848456E+02  0.75929938789E+02  0.47000000000E+01 0.  1.
         13    1    4    4    0    0 -0.51615245585E+02 -0.19656546439E+02 -0.33194264016E+02  0.64438905627E+02  0.00000000000E+00 0. -1.
        -14    1    4    4    0    0 -0.60226746173E+02  0.45296967177E+02  0.15476318385E+02  0.76932389933E+02  0.00000000000E+00 0.  1.
</event>
<event>
12    1  0.1596842E-001  0.2195789E+03  0.7818608E-02  0.1135184E+00
         21   -1    0    0  501  502  0.00000000000E+00  0.00000000000E+00  0.91041124191E+02  0.91041124191E+02  0.00000000000E+00 0. -1.
         21   -1    0    0  502  503 -0.00000000000E+00 -0.00000000000E+00 -0.51711664779E+03  0.51711664779E+03  0.00000000000E+00 0. -1.
         -6    2    1    2    0  503  0.18918732897E+02 -0.13257121402E+03 -0.20840470547E+03  0.29897261385E+03  0.16738894028E+03 0.  0.
        -24    2    3    3    0    0  0.72443144208E+02 -0.57407012324E+02 -0.11520036730E+03  0.16773367726E+03  0.79497721064E+02 0.  0.
          6    2    1    2  501    0 -0.18918732897E+02  0.13257121402E+03 -0.21767081813E+03  0.30918515813E+03  0.17401675696E+03 0.  0.
         24    2    5    5    0    0  0.41509608660E+02  0.26091064090E+02 -0.61157728330E+02  0.11041885296E+03  0.77770586463E+02 0.  0.
          5    1    5    5  501    0 -0.60428341557E+02  0.10648014993E+03 -0.15651308980E+03  0.19876630517E+03  0.47000000000E+01 0. -1.
        -11    1    6    6    0    0  0.11101386620E+02 -0.20985795593E+02  0.44269720460E+01  0.24150413725E+02  0.00000000000E+00 0.  1.
         12    1    6    6    0    0  0.30408222039E+02  0.47076859683E+02 -0.65584700376E+02  0.86268439238E+02  0.00000000000E+00 0. -1.
         -5    1    3    3    0  503 -0.53524411311E+02 -0.75164201697E+02 -0.93204338170E+02  0.13123893659E+03  0.47000000000E+01 0.  1.
         11    1    4    4    0    0  0.74211243982E+02 -0.69673942937E+02 -0.11714041109E+03  0.15518905557E+03  0.00000000000E+00 0. -1.
        -12    1    4    4    0    0 -0.17680997733E+01  0.12266930613E+02  0.19400437900E+01  0.12544621692E+02  0.00000000000E+00 0.  1.
</event>
<event>
12    1  0.1596842E-001  0.1931017E+03  0.7818608E-02  0.1157183E+00
         21   -1    0    0  501  502  0.00000000000E+00  0.00000000000E+00  0.84634759632E+03  0.84634759632E+03  0.00000000000E+00 0. -1.
         21   -1    0    0  502  503 -0.00000000000E+00 -0.00000000000E+00 -0.73343949909E+02  0.73343949909E+02  0.00000000000E+00 0. -1.
         -6    2    1    2    0  503 -0.24223177719E+02  0.78014047574E+02  0.84697018069E+02  0.20481093028E+03  0.16763346424E+03 0.  0.
        -24    2    3    3    0    0  0.67391946873E+01  0.56538944000E+02 -0.15216599875E+02  0.97924684066E+02  0.78202492953E+02 0.  0.
          6    2    1    2  501    0  0.24223177719E+02 -0.78014047574E+02  0.68830662834E+03  0.71488061595E+03  0.17497235920E+03 0.  0.
         24    2    5    5    0    0  0.83197190534E+02 -0.65436956516E+02  0.48117724796E+03  0.49910112753E+03  0.79791125780E+02 0.  0.
          5    1    5    5  501    0 -0.58974012815E+02 -0.12577091058E+02  0.20712938038E+03  0.21577948842E+03  0.47000000000E+01 0. -1.
        -11    1    6    6    0    0  0.34043431209E+02 -0.58860051284E+02  0.15614944679E+03  0.17031180399E+03  0.00000000000E+00 0.  1.
         12    1    6    6    0    0  0.49153759325E+02 -0.65769052321E+01  0.32502780117E+03  0.32878932354E+03  0.00000000000E+00 0. -1.
         -5    1    3    3    0  503 -0.30962372406E+02  0.21475103573E+02  0.99913617945E+02  0.10688624621E+03  0.47000000000E+01 0.  1.
         11    1    4    4    0    0 -0.25092805868E+02  0.19515580688E+02 -0.33131860102E+02  0.45915432588E+02  0.00000000000E+00 0. -1.
        -12    1    4    4    0    0  0.31832000556E+02  0.37023363313E+02  0.17915260227E+02  0.52009251478E+02  0.00000000000E+00 0.  1.
</event>
<event>
12    1  0.1596842E-001  0.1893963E+03  0.7818608E-02  0.1159479E+00
         21   -1    0    0  503  502  0.00000000000E+00  0.00000000000E+00  0.30576153863E+03  0.30576153863E+03  0.00000000000E+00 0. -1.
         21   -1    0    0  501  503 -0.00000000000E+00 -0.00000000000E+00 -0.20577665256E+03  0.20577665256E+03  0.00000000000E+00 0.  1.
          6    2    1    2  501    0  0.75777325672E+02 -0.43366985190E+01 -0.11906720756E+03  0.22196127547E+03  0.17125652644E+03 0.  0.
         24    2    3    3    0    0  0.59678537048E+02 -0.31799690412E+02 -0.22690519037E+02  0.12035446954E+03  0.96941170767E+02 0.  0.
         -6    2    1    2    0  502 -0.75777325672E+02  0.43366985190E+01  0.21905209364E+03  0.28957691573E+03  0.17352221863E+03 0.  0.
        -24    2    5    5    0    0 -0.10847407291E+03  0.39446614241E+02  0.15070791594E+03  0.20594199427E+03  0.79853423276E+02 0.  0.
          5    1    3    3  501    0  0.16098788624E+02  0.27462991893E+02 -0.96376688528E+02  0.10160680593E+03  0.47000000000E+01 0. -1.
        -11    1    4    4    0    0  0.30413106205E+02 -0.60417232516E+02 -0.36869634811E+02  0.77036153752E+02  0.00000000000E+00 0.  1.
         12    1    4    4    0    0  0.29265430844E+02  0.28617542104E+02  0.14179115774E+02  0.43318315788E+02  0.00000000000E+00 0. -1.
         -5    1    5    5    0  502  0.32696747240E+02 -0.35109915722E+02  0.68344177694E+02  0.83634921455E+02  0.47000000000E+01 0.  1.
         11    1    6    6    0    0 -0.51872252018E+01  0.36378354640E+02  0.45348707404E+02  0.58367775825E+02  0.00000000000E+00 0. -1.
        -12    1    6    6    0    0 -0.10328684771E+03  0.30682596004E+01  0.10535920854E+03  0.14757421845E+03  0.00000000000E+00 0.  1.
</event>
<event>
12    1  0.1596842E-001  0.1984804E+03  0.7818608E-02  0.1151180E+00
         21   -1    0    0  503  502  0.00000000000E+00  0.00000000000E+00  0.97923539303E+01  0.97923539303E+01  0.00000000000E+00 0. -1.
         21   -1    0    0  501  503 -0.00000000000E+00 -0.00000000000E+00 -0.42106990942E+04  0.42106990942E+04  0.00000000000E+00 0.  1.
          6    2    1    2  501    0  0.82183576846E+02  0.51340575771E+02 -0.25593012835E+04  0.25669307558E+04  0.17239620178E+03 0.  0.
         24    2    3    3    0    0  0.78909232288E+02 -0.74792786115E+01 -0.22140062376E+04  0.22166148194E+04  0.72629407078E+02 0.  0.
         -6    2    1    2    0  502 -0.82183576846E+02 -0.51340575771E+02 -0.16416054568E+04  0.16535606924E+04  0.17321804889E+03 0.  0.
        -24    2    5    5    0    0  0.25327507727E+02 -0.14224562316E+02 -0.60747078939E+03  0.61317959290E+03  0.78260030410E+02 0.  0.
          5    1    3    3  501    0  0.32743445584E+01  0.58819854383E+02 -0.34529504587E+03  0.35031593641E+03  0.47000000000E+01 0. -1.
        -11    1    4    4    0    0  0.48701694930E+02  0.12032682222E+02 -0.18816699330E+04  0.18823385395E+04  0.00000000000E+00 0.  1.
         12    1    4    4    0    0  0.30207537358E+02 -0.19511960833E+02 -0.33233630456E+03  0.33427627983E+03  0.00000000000E+00 0. -1.
         -5    1    5    5    0  502 -0.10751108457E+03 -0.37116013455E+02 -0.10341346675E+04  0.10403810995E+04  0.47000000000E+01 0.  1.
         13    1    6    6    0    0 -0.23533274512E+02 -0.23907763972E+02 -0.22857176486E+03  0.23102044905E+03  0.00000000000E+00 0. -1.
        -14    1    6    6    0    0  0.48860782240E+02  0.96832016563E+01 -0.37889902453E+03  0.38215914385E+03  0.00000000000E+00 0.  1.
</event>
<event>
12    1  0.1596842E-001  0.2585281E+03  0.7818608E-02  0.1108143E+00
         21   -1    0    0  501  502  0.00000000000E+00  0.00000000000E+00  0.19365357232E+04  0.19365357232E+04  0.00000000000E+00 0.  1.
         21   -1    0    0  502  503 -0.00000000000E+00 -0.00000000000E+00 -0.34675307131E+02  0.34675307131E+02  0.00000000000E+00 0. -1.
         -6    2    1    2    0  503  0.12984063591E+03  0.14157426887E+03  0.86691325778E+03  0.90464102069E+03  0.17301709587E+03 0.  0.
        -24    2    3    3    0    0  0.16020348663E+03  0.95136745446E+02  0.66265445492E+03  0.69292872811E+03  0.79518162380E+02 0.  0.
          6    2    1    2  501    0 -0.12984063591E+03 -0.14157426887E+03  0.10349471583E+04  0.10665700096E+04  0.17191306137E+03 0.  0.
         24    2    5    5    0    0 -0.98563445180E+02 -0.56964537994E+02  0.84423952833E+03  0.85555209726E+03  0.79178902602E+02 0.  0.
          5    1    5    5  501    0 -0.31277190730E+02 -0.84609730880E+02  0.19070762995E+03  0.21101791237E+03  0.47000000000E+01 0. -1.
        -13    1    6    6    0    0  0.10199100578E+02 -0.11935573016E+02  0.20233982806E+03  0.20294798736E+03  0.00000000000E+00 0.  1.
         14    1    6    6    0    0 -0.10876254576E+03 -0.45028964979E+02  0.64189970027E+03  0.65260410990E+03  0.00000000000E+00 0. -1.
         -5    1    3    3    0  503 -0.30362850718E+02  0.46437523428E+02  0.20425880286E+03  0.21171229258E+03  0.47000000000E+01 0.  1.
         11    1    4    4    0    0  0.11946988389E+03  0.26120547399E+02  0.41322477867E+03  0.43094089369E+03  0.00000000000E+00 0. -1.
        -12    1    4    4    0    0  0.40733602740E+02  0.69016198047E+02  0.24942967625E+03  0.26198783441E+03  0.00000000000E+00 0.  1.
</event>
<event>
12    1  0.1596842E-001  0.2094342E+03  0.7818608E-02  0.1143208E+00
         21   -1    0    0  501  502  0.00000000000E+00  0.00000000000E+00  0.72141096838E+02  0.72141096838E+02  0.00000000000E+00 0.  1.
         21   -1    0    0  502  503 -0.00000000000E+00 -0.00000000000E+00 -0.13736100994E+04  0.13736100994E+04  0.00000000000E+00 0.  1.
         -6    2    1    2    0  503  0.10768739186E+03  0.86659535160E+00 -0.12003725796E+04  0.12185060607E+04  0.17962562420E+03 0.  0.
        -24    2    3    3    0    0  0.16489790056E+02 -0.14962257174E+02 -0.24476271962E+03  0.25841239363E+03  0.79827275730E+02 0.  0.
          6    2    1    2  501    0 -0.10768739186E+03 -0.86659535160E+00 -0.10109642299E+03  0.22724513552E+03  0.17269203665E+03 0.  0.
         24    2    5    5    0    0 -0.10421086538E+03 -0.17410227690E+02 -0.13032240955E+03  0.19315662870E+03  0.95721117253E+02 0.  0.
          5    1    5    5  501    0 -0.34765264836E+01  0.16543632338E+02  0.29225986554E+02  0.34088506822E+02  0.47000000000E+01 0. -1.
        -11    1    6    6    0    0 -0.91100720503E+01 -0.39004479885E+02 -0.62998440625E+02  0.74653508860E+02  0.00000000000E+00 0.  1.
         12    1    6    6    0    0 -0.95100793330E+02  0.21594252195E+02 -0.67323968921E+02  0.11850311984E+03  0.00000000000E+00 0. -1.
         -5    1    3    3    0  503  0.91197601808E+02  0.15828852525E+02 -0.95560985994E+03  0.96009366708E+03  0.47000000000E+01 0.  1.
         13    1    4    4    0    0  0.11613580549E+02 -0.47482480781E+02 -0.12502374258E+03  0.13424007391E+03  0.00000000000E+00 0. -1.
        -14    1    4    4    0    0  0.48762095072E+01  0.32520223608E+02 -0.11973897703E+03  0.12417231972E+03  0.00000000000E+00 0.  1.
</event>
<event>
12    1  0.1596842E-001  0.3164100E+03  0.7818608E-02  0.1077377E+00
         21   -1    0    0  503  502  0.00000000000E+00  0.00000000000E+00  0.79947662994E+03  0.79947662994E+03  0.00000000000E+00 0. -1.
         21   -1    0    0  501  503 -0.00000000000E+00 -0.00000000000E+00 -0.13712324611E+03  0.13712324611E+03  0.00000000000E+00 0.  1.
          6    2    1    2  501    0 -0.13455006028E+03 -0.22877659505E+03  0.47009645353E+03  0.56635942245E+03  0.17125965843E+03 0.  0.
         24    2    3    3    0    0 -0.14642972620E+02 -0.15329281488E+03  0.27215261053E+03  0.32288588030E+03  0.80468282827E+02 0.  0.
         -6    2    1    2    0  502  0.13455006028E+03  0.22877659505E+03  0.19225693029E+03  0.37024045360E+03  0.17225799567E+03 0.  0.
        -24    2    5    5    0    0  0.98265815926E+02  0.17761941366E+03  0.21052022088E+03  0.30474815345E+03  0.85719583188E+02 0.  0.
          5    1    3    3  501    0 -0.11990708766E+03 -0.75483780171E+02  0.19794384300E+03  0.24347354214E+03  0.47000000000E+01 0. -1.
        -13    1    4    4    0    0  0.26218158366E+02 -0.47461171400E+02  0.51515408360E+02  0.74791656736E+02  0.00000000000E+00 0.  1.
         14    1    4    4    0    0 -0.40861130985E+02 -0.10583164348E+03  0.22063720217E+03  0.24809422357E+03  0.00000000000E+00 0. -1.
         -5    1    5    5    0  502  0.36284244357E+02  0.51157181387E+02 -0.18263290587E+02  0.65492300151E+02  0.47000000000E+01 0.  1.
         13    1    6    6    0    0  0.98904180511E+02  0.99063981480E+02  0.15305029302E+03  0.20741287699E+03  0.00000000000E+00 0. -1.
        -14    1    6    6    0    0 -0.63836458509E+00  0.78555432179E+02  0.57469927862E+02  0.97335276455E+02  0.00000000000E+00 0.  1.
</event>
<event>
12    1  0.1596842E-001  0.2522629E+03  0.7818608E-02  0.1111924E+00
         21   -1    0    0  503  502  0.00000000000E+00  0.00000000000E+00  0.62954250571E+02  0.62954250571E+02  0.00000000000E+00 0.  1.
         21   -1    0    0  501  503 -0.00000000000E+00 -0.00000000000E+00 -0.21369671483E+04  0.21369671483E+04  0.00000000000E+00 0. -1.
          6    2    1    2  501    0  0.16357963633E+03  0.86065558803E+02 -0.18361248376E+04  0.18533728658E+04  0.17167114674E+03 0.  0.
         24    2    3    3    0    0  0.13772337058E+03  0.51069483172E+00 -0.13341373185E+04  0.13434692077E+04  0.77583115342E+02 0.  0.
         -6    2    1    2    0  502 -0.16357963633E+03 -0.86065558803E+02 -0.23788806019E+03  0.34654853312E+03  0.17128799956E+03 0.  0.
        -24    2    5    5    0    0 -0.47342743182E+02 -0.12494898611E+00 -0.36016933654E+02  0.98212378941E+02  0.78147942540E+02 0.  0.
          5    1    3    3  501    0  0.25856265754E+02  0.85554863972E+02 -0.50198751907E+03  0.50990365809E+03  0.47000000000E+01 0. -1.
        -11    1    4    4    0    0  0.64793947515E+02 -0.35184924550E+02 -0.50299371671E+03  0.50836887552E+03  0.00000000000E+00 0.  1.
         12    1    4    4    0    0  0.72929423066E+02  0.35695619381E+02 -0.83114360179E+03  0.83510033217E+03  0.00000000000E+00 0. -1.
         -5    1    5    5    0  502 -0.11623689315E+03 -0.85940609817E+02 -0.20187112654E+03  0.24833615418E+03  0.47000000000E+01 0.  1.
         13    1    6    6    0    0 -0.21022898123E+02  0.65518998348E+01 -0.58786648693E+02  0.62775470540E+02  0.00000000000E+00 0. -1.
        -14    1    6    6    0    0 -0.26319845059E+02 -0.66768488209E+01  0.22769715039E+02  0.35436908401E+02  0.00000000000E+00 0.  1.
</event>
<event>
12    1  0.1596842E-001  0.2401391E+03  0.7818608E-02  0.1120225E+00
         21   -1    0    0  501  502  0.00000000000E+00  0.00000000000E+00  0.53291440589E+02  0.53291440589E+02  0.00000000000E+00 0. -1.
         21   -1    0    0  502  503 -0.00000000000E+00 -0.00000000000E+00 -0.10855322271E+04  0.10855322271E+04  0.00000000000E+00 0. -1.
         -6    2    1    2    0  503  0.11015160174E+03 -0.12035883496E+03 -0.44052029168E+03  0.50023153214E+03  0.17191228535E+03 0.  0.
        -24    2    3    3    0    0  0.59213229862E+02 -0.78295591855E+02 -0.13139769416E+03  0.18409405502E+03  0.83599406499E+02 0.  0.
          6    2    1    2  501    0 -0.11015160174E+03  0.12035883496E+03 -0.59172049480E+03  0.63859213551E+03  0.17620200638E+03 0.  0.
         24    2    5    5    0    0 -0.33523373331E+02  0.13597094030E+03 -0.36891763144E+03  0.40241671523E+03  0.78911854275E+02 0.  0.
          5    1    5    5  501    0 -0.76628228407E+02 -0.15612105345E+02 -0.22280286336E+03  0.23617542028E+03  0.47000000000E+01 0. -1.
        -11    1    6    6    0    0 -0.30171436177E+02  0.11712608735E+02 -0.44698562646E+02  0.55185707090E+02  0.00000000000E+00 0.  1.
         12    1    6    6    0    0 -0.33519371549E+01  0.12425833157E+03 -0.32421906879E+03  0.34723100814E+03  0.00000000000E+00 0. -1.
         -5    1    3    3    0  503  0.50938371876E+02 -0.42063243102E+02 -0.30912259751E+03  0.31613747713E+03  0.47000000000E+01 0.  1.
         11    1    4    4    0    0  0.79246455517E+02 -0.48919716072E+02 -0.10013081341E+03  0.13674545377E+03  0.00000000000E+00 0. -1.
        -12    1    4    4    0    0 -0.20033225655E+02 -0.29375875783E+02 -0.31266880756E+02  0.47348601251E+02  0.00000000000E+00 0.  1.
</event>
<event>
12    1  0.1596842E-001  0.1821722E+03  0.7818608E-02  0.1165755E+00
         21   -1    0    0  503  502  0.00000000000E+00  0.00000000000E+00  0.18478770211E+03  0.18478770211E+03  0.00000000000E+00 0.  1.
         21   -1    0    0  501  503 -0.00000000000E+00 -0.00000000000E+00 -0.18796333590E+03  0.18796333590E+03  0.00000000000E+00 0.  1.
          6    2    1    2  501    0 -0.59026952387E+02 -0.12703834815E+02 -0.41286185679E+02  0.18679201451E+03  0.17187535899E+03 0.  0.
         24    2    3    3    0    0  0.19205093432E+02 -0.48873358889E+02 -0.29883744146E+02  0.99725412773E+02  0.79339012886E+02 0.  0.
         -6    2    1    2    0  502  0.59026952387E+02  0.12703834815E+02  0.38110551890E+02  0.18595902351E+03  0.17170549127E+03 0.  0.
        -24    2    5    5    0    0  0.28551241014E+02 -0.44462575220E+02  0.66208737984E+02  0.11518921722E+03  0.78056805089E+02 0.  0.
          5    1    3    3  501    0 -0.78232045819E+02  0.36169524075E+02 -0.11402441533E+02  0.87066601735E+02  0.47000000000E+01 0. -1.
        -11    1    4    4    0    0 -0.30156005412E+02 -0.24357793370E+02 -0.44270368264E+01  0.39016476204E+02  0.00000000000E+00 0.  1.
         12    1    4    4    0    0  0.49361098844E+02 -0.24515565519E+02 -0.25456707320E+02  0.60708936569E+02  0.00000000000E+00 0. -1.
         -5    1    5    5    0  502  0.30475711372E+02  0.57166410035E+02 -0.28098186094E+02  0.70769806286E+02  0.47000000000E+01 0.  1.
         11    1    6    6    0    0 -0.19072899750E+02 -0.46953377213E+01 -0.54679522691E+01  0.20389217818E+02  0.00000000000E+00 0. -1.
        -12    1    6    6    0    0  0.47624140765E+02 -0.39767237499E+02  0.71676690253E+02  0.94799999407E+02  0.00000000000E+00 0.  1.
</event>
<event>
12    1  0.1596842E-001  0.2183700E+03  0.7818608E-02  0.1135166E+00
         21   -1    0    0  501  502  0.00000000000E+00  0.00000000000E+00  0.57890002279E+03  0.57890002279E+03  0.00000000000E+00 0.  1.
         21   -1    0    0  502  503 -0.00000000000E+00 -0.00000000000E+00 -0.82387501691E+02  0.82387501691E+02  0.00000000000E+00 0. -1.
         -6    2    1    2    0  503  0.13158013441E+03  0.29776839105E+02  0.26165506856E+03  0.34059532198E+03  0.17129450236E+03 0.  0.
        -24    2    3    3    0    0  0.40483122181E+02  0.35036999529E+02  0.45285080263E+02  0.10572430044E+03  0.79122782386E+02 0.  0.
          6    2    1    2  501    0 -0.13158013441E+03 -0.29776839105E+02  0.23485745254E+03  0.32069220250E+03  0.17171334779E+03 0.  0.
         24    2    5    5    0    0 -0.13742696660E+03  0.26230214085E+02  0.16716494980E+03  0.23251431195E+03  0.80898637449E+02 0.  0.
          5    1    5    5  501    0  0.58468321834E+01 -0.56007053189E+02  0.67692502741E+02  0.88177890544E+02  0.47000000000E+01 0. -1.
        -11    1    6    6    0    0  0.83587527223E+01 -0.62426221094E+00  0.27855266935E+02  0.29089076066E+02  0.00000000000E+00 0.  1.
         12    1    6    6    0    0 -0.14578571932E+03  0.26854476296E+02  0.13930968287E+03  0.20342523588E+03  0.00000000000E+00 0. -1.
         -5    1    3    3    0  503  0.91097012232E+02 -0.52601604244E+01  0.21636998829E+03  0.23487102154E+03  0.47000000000E+01 0.  1.
         11    1    4    4    0    0  0.61141975530E+02  0.20142575563E+02  0.14898123436E+02  0.66075854924E+02  0.00000000000E+00 0. -1.
        -12    1    4    4    0    0 -0.20658853349E+02  0.14894423966E+02  0.30386956827E+02  0.39648445520E+02  0.00000000000E+00 0.  1.
</event>
<event>
12    1  0.1596842E-001  0.1875993E+03  0.7818608E-02  0.1163992E+00
         21   -1    0    0  501  502  0.00000000000E+00  0.00000000000E+00  0.52614373667E+03  0.52614373667E+03  0.00000000000E+00 0.  1.
         21   -1    0    0  502  503 -0.00000000000E+00 -0.00000000000E+00 -0.86544432901E+02  0.86544432901E+02  0.00000000000E+00 0.  1.
         -6    2    1    2    0  503  0.67630274992E+02  0.32395969867E+02  0.62811646409E+02  0.19783532312E+03  0.17195976039E+03 0.  0.
        -24    2    3    3    0    0  0.27125321002E+02  0.64897730074E+02  0.90504746433E+02  0.13879285110E+03  0.78261407986E+02 0.  0.
          6    2    1    2  501    0 -0.67630274992E+02 -0.32395969867E+02  0.37678765736E+03  0.41485284645E+03  0.15655859129E+03 0.  0.
         24    2    5    5    0    0 -0.64468707912E+02  0.32623487591E+02  0.26952800351E+03  0.28929708713E+03  0.76334485662E+02 0.  0.
          5    1    5    5  501    0 -0.31615670795E+01 -0.65019457458E+02  0.10725965385E+03  0.12555575932E+03  0.47000000000E+01 0. -1.
        -13    1    6    6    0    0  0.12069216892E+02 -0.10838121120E+02  0.57026134836E+02  0.59288370868E+02  0.00000000000E+00 0.  1.
         14    1    6    6    0    0 -0.76537924804E+02  0.43461608711E+02  0.21250186867E+03  0.23000871626E+03  0.00000000000E+00 0. -1.
         -5    1    3    3    0  503  0.40504953989E+02 -0.32501760207E+02 -0.27693100024E+02  0.59042472028E+02  0.47000000000E+01 0.  1.
         13    1    4    4    0    0 -0.12151234685E+02 -0.12895335273E+02  0.19812573373E+02  0.26579696008E+02  0.00000000000E+00 0. -1.
        -14    1    4    4    0    0  0.39276555688E+02  0.77793065347E+02  0.70692173060E+02  0.11221315509E+03  0.00000000000E+00 0.  1.
</event>
<event>
12    1  0.1596842E-001  0.2553363E+03  0.7818608E-02  0.1109989E+00
         21   -1    0    0  503  502  0.00000000000E+00  0.00000000000E+00  0.71547627205E+03  0.71547627205E+03  0.00000000000E+00 0.  1.
         21   -1    0    0  501  503 -0.00000000000E+00 -0.00000000000E+00 -0.93931339003E+02  0.93931339003E+02  0.00000000000E+00 0. -1.
          6    2    1    2  501    0  0.47727248722E+02  0.18244618091E+03  0.24052162849E+03  0.35078098533E+03  0.17213990444E+03 0.  0.
         24    2    3    3    0    0 -0.36111992144E+01  0.15040181085E+03  0.23417912766E+03  0.28974988501E+03  0.80507059104E+02 0.  0.
         -6    2    1    2    0  502 -0.47727248722E+02 -0.18244618091E+03  0.38102330456E+03  0.45862662572E+03  0.17203233418E+03 0.  0.
        -24    2    5    5    0    0  0.32516538040E+02 -0.13666552691E+03  0.21617103918E+03  0.26959410737E+03  0.78843345022E+02 0.  0.
          5    1    3    3  501    0  0.51338447936E+02  0.32044370068E+02  0.63425008242E+01  0.61031100320E+02  0.47000000000E+01 0. -1.
        -13    1    4    4    0    0 -0.33285342145E+00 -0.60211235805E+01  0.39665597804E+02  0.40121370486E+02  0.00000000000E+00 0.  1.
         14    1    4    4    0    0 -0.32783457929E+01  0.15642293443E+03  0.19451352986E+03  0.24962851453E+03  0.00000000000E+00 0. -1.
         -5    1    5    5    0  502 -0.80243786762E+02 -0.45780654003E+02  0.16485226538E+03  0.18903251835E+03  0.47000000000E+01 0.  1.
         11    1    6    6    0    0  0.18437062132E+02 -0.79208704383E+02  0.18639914271E+03  0.20336810102E+03  0.00000000000E+00 0. -1.
        -12    1    6    6    0    0  0.14079475909E+02 -0.57456822528E+02  0.29771896470E+02  0.66226006345E+02  0.00000000000E+00 0.  1.
</event>
<event>
12    1  0.1596842E-001  0.1851047E+03  0.7818608E-02  0.1163035E+00
         21   -1    0    0  501  502  0.00000000000E+00  0.00000000000E+00  0.16742062314E+03  0.16742062314E+03  0.00000000000E+00 0. -1.
         21   -1    0    0  502  503 -0.00000000000E+00 -0.00000000000E+00 -0.22272321946E+03  0.22272321946E+03  0.00000000000E+00 0. -1.
         -6    2    1    2    0  503 -0.48978523941E+02  0.44443298634E+02 -0.83833503023E+02  0.20320385908E+03  0.17288623286E+03 0.  0.
        -24    2    3    3    0    0 -0.62913990801E+02  0.81686024401E+02 -0.93864949679E+02  0.16192507783E+03  0.82330585027E+02 0.  0.
          6    2    1    2  501    0  0.48978523941E+02 -0.44443298634E+02  0.28530906701E+02  0.18693998352E+03  0.17250635408E+03 0.  0.
         24    2    5    5    0    0  0.40401185056E+02  0.29287410795E+02  0.48521893678E+02  0.10992363580E+03  0.85081275005E+02 0.  0.
          5    1    5    5  501    0  0.85773388849E+01 -0.73730709429E+02 -0.19990986977E+02  0.77016347716E+02  0.47000000000E+01 0. -1.
        -13    1    6    6    0    0 -0.39923513939E+01  0.25312582600E+02 -0.16947332945E+02  0.30722594316E+02  0.00000000000E+00 0.  1.
         14    1    6    6    0    0  0.44393536450E+02  0.39748281946E+01  0.65469226623E+02  0.79201041485E+02  0.00000000000E+00 0. -1.
         -5    1    3    3    0  503  0.13935466860E+02 -0.37242725767E+02  0.10031446656E+02  0.41278781246E+02  0.47000000000E+01 0.  1.
         11    1    4    4    0    0  0.52781316841E+01  0.58250437648E+02 -0.30657651110E+02  0.66036836174E+02  0.00000000000E+00 0. -1.
        -12    1    4    4    0    0 -0.68192122485E+02  0.23435586753E+02 -0.63207298569E+02  0.95888241656E+02  0.00000000000E+00 0.  1.
</event>
<event>
12    1  0.1596842E-001  0.1746783E+03  0.7818608E-02  0.1173662E+00
         21   -1    0    0  503  502  0.00000000000E+00  0.00000000000E+00  0.33367627116E+03  0.33367627116E+03  0.00000000000E+00 0.  1.
         21   -1    0    0  501  503 -0.00000000000E+00 -0.00000000000E+00 -0.10032571712E+03  0.10032571712E+03  0.00000000000E+00 0.  1.
          6    2    1    2  501    0 -0.33081059506E+01  0.93987375725E+00  0.46998040723E+02  0.17858125474E+03  0.17225162346E+03 0.  0.
         24    2    3    3    0    0 -0.10970185409E+02  0.63565904565E+02  0.78939719593E+01  0.10420420593E+03  0.81456936773E+02 0.  0.
         -6    2    1    2    0  502  0.33081059506E+01 -0.93987375725E+00  0.18635251332E+03  0.25542073354E+03  0.17464439577E+03 0.  0.
        -24    2    5    5    0    0 -0.48893337964E+02  0.42049454394E+02  0.86467621580E+02  0.13470555355E+03  0.80685943407E+02 0.  0.
          5    1    3    3  501    0  0.76620794589E+01 -0.62626030808E+02  0.39104068764E+02  0.74377048814E+02  0.47000000000E+01 0. -1.
        -11    1    4    4    0    0 -0.40308581306E+02  0.10566802381E+02  0.12352085644E+02  0.43462777859E+02  0.00000000000E+00 0.  1.
         12    1    4    4    0    0  0.29338395896E+02  0.52999102184E+02 -0.44581136852E+01  0.60741428068E+02  0.00000000000E+00 0. -1.
         -5    1    5    5    0  502  0.52201443915E+02 -0.42989328151E+02  0.99884891745E+02  0.12071517999E+03  0.47000000000E+01 0.  1.
         13    1    6    6    0    0 -0.19823152908E+00  0.51998079395E+02  0.32407233873E+02  0.61270452617E+02  0.00000000000E+00 0. -1.
        -14    1    6    6    0    0 -0.48695106435E+02 -0.99486250016E+01  0.54060387706E+02  0.73435100933E+02  0.00000000000E+00 0.  1.
</event>
<event>
12    1  0.1596842E-001  0.1932657E+03  0.7818608E-02  0.1156388E+00
         21   -1    0    0  503  502  0.00000000000E+00  0.00000000000E+00  0.40195939298E+03  0.40195939298E+03  0.00000000000E+00 0. -1.
         21   -1    0    0  501  503 -0.00000000000E+00 -0.00000000000E+00 -0.10829909335E+03  0.10829909335E+03  0.00000000000E+00 0. -1.
          6    2    1    2  501    0 -0.76010081555E+02  0.40880003802E+02  0.44012587884E+02  0.19454402329E+03  0.16870554791E+03 0.  0.
         24    2    3    3    0    0 -0.78060390323E+02  0.31348444267E+02 -0.33183259686E+02  0.11659312031E+03  0.73598080717E+02 0.  0.
         -6    2    1    2    0  502  0.76010081555E+02 -0.40880003802E+02  0.24964771175E+03  0.31571446304E+03  0.17292465117E+03 0.  0.
        -24    2    5    5    0    0 -0.23042241128E+01 -0.61571564198E+02  0.19046077498E+03  0.21528312018E+03  0.79215832153E+02 0.  0.
          5    1    3    3  501    0  0.20503087673E+01  0.95315595344E+01  0.77195847570E+02  0.77950902979E+02  0.47000000000E+01 0. -1.
        -13    1    4    4    0    0  0.14589856147E+02  0.32186183904E+01 -0.47821365944E+01  0.15687327278E+02  0.00000000000E+00 0.  1.
         14    1    4    4    0    0 -0.92650246470E+02  0.28129825877E+02 -0.28401123092E+02  0.10090579303E+03  0.00000000000E+00 0. -1.
         -5    1    5    5    0  502  0.78314305668E+02  0.20691560396E+02  0.59186936771E+02  0.10043134286E+03  0.47000000000E+01 0.  1.
         11    1    6    6    0    0  0.32767106476E+02 -0.43101010080E+02  0.70168016714E+02  0.88628048080E+02  0.00000000000E+00 0. -1.
        -12    1    6    6    0    0 -0.35071330589E+02 -0.18470554117E+02  0.12029275826E+03  0.12665507210E+03  0.00000000000E+00 0.  1.
</event>
<event>
12    1  0.1596842E-001  0.1758757E+03  0.7818608E-02  0.1172607E+00
         21   -1    0    0  503  502  0.00000000000E+00  0.00000000000E+00  0.42542011180E+02  0.42542011180E+02  0.00000000000E+00 0.  1.
         21   -1    0    0  501  503 -0.00000000000E+00 -0.00000000000E+00 -0.11196785329E+04  0.11196785329E+04  0.00000000000E+00 0.  1.
          6    2    1    2  501    0  0.87304134064E+00  0.26547849877E+02 -0.89094065579E+03  0.90813407533E+03  0.17385826441E+03 0.  0.
         24    2    3    3    0    0 -0.40485164631E+02 -0.39848120265E+02 -0.49918120384E+03  0.50861375765E+03  0.79241144330E+02 0.  0.
         -6    2    1    2    0  502 -0.87304134064E+00 -0.26547849877E+02 -0.18619586589E+03  0.25408646871E+03  0.17083759121E+03 0.  0.
        -24    2    5    5    0    0  0.52363686890E+02 -0.13231053619E+01 -0.16720954946E+03  0.19201387266E+03  0.78527622848E+02 0.  0.
          5    1    3    3  501    0  0.41358205971E+02  0.66395970142E+02 -0.39175945195E+03  0.39952031769E+03  0.47000000000E+01 0. -1.
        -11    1    4    4    0    0 -0.21840998098E+01  0.16974742880E+02 -0.30708168485E+02  0.35155423472E+02  0.00000000000E+00 0.  1.
         12    1    4    4    0    0 -0.38301064821E+02 -0.56822863146E+02 -0.46847303536E+03  0.47345833417E+03  0.00000000000E+00 0. -1.
         -5    1    5    5    0  502 -0.53236728231E+02 -0.25224744515E+02 -0.18986316426E+02  0.62072596047E+02  0.47000000000E+01 0.  1.
         11    1    6    6    0    0 -0.49960253929E+01  0.29052708248E+02 -0.53452988498E+02  0.61042952956E+02  0.00000000000E+00 0. -1.
        -12    1    6    6    0    0  0.57359712283E+02 -0.30375813610E+02 -0.11375656096E+03  0.13097091970E+03  0.00000000000E+00 0.  1.
</event>
<event>
12    1  0.1596842E-001  0.1959831E+03  0.7818608E-02  0.1153407E+00
         21   -1    0    0  503  502  0.00000000000E+00  0.00000000000E+00  0.30577921215E+03  0.30577921215E+03  0.00000000000E+00 0. -1.
         21   -1    0    0  501  503 -0.00000000000E+00 -0.00000000000E+00 -0.12494559166E+03  0.12494559166E+03  0.00000000000E+00 0. -1.
          6    2    1    2  501    0  0.73017877467E+02 -0.56642916992E+02  0.93160092494E+02  0.21602492369E+03  0.17160400446E+03 0.  0.
         24    2    3    3    0    0 -0.19936020591E+02 -0.31242955741E+02  0.24132728395E+02  0.97397556741E+02  0.86777464119E+02 0.  0.
         -6    2    1    2    0  502 -0.73017877467E+02  0.56642916992E+02  0.87673527992E+02  0.21469988011E+03  0.17282754565E+03 0.  0.
        -24    2    5    5    0    0 -0.11073266904E+03  0.62776847285E+02  0.56289789886E+02  0.16503037617E+03  0.88678227683E+02 0.  0.
          5    1    3    3  501    0  0.92953898058E+02 -0.25399961251E+02  0.69027364099E+02  0.11862736695E+03  0.47000000000E+01 0. -1.
        -11    1    4    4    0    0 -0.44981253129E+01 -0.46765917371E+02 -0.17681516413E+02  0.50198806575E+02  0.00000000000E+00 0.  1.
         12    1    4    4    0    0 -0.15437895278E+02  0.15522961631E+02  0.41814244808E+02  0.47198750166E+02  0.00000000000E+00 0. -1.
         -5    1    5    5    0  502  0.37714791577E+02 -0.61339302935E+01  0.31383738106E+02  0.49669503944E+02  0.47000000000E+01 0.  1.
         13    1    6    6    0    0 -0.79691267620E+01 -0.20669281540E+02  0.13347246194E+02  0.25862620936E+02  0.00000000000E+00 0. -1.
        -14    1    6    6    0    0 -0.10276354228E+03  0.83446128825E+02  0.42942543692E+02  0.13916775523E+03  0.00000000000E+00 0.  1.
</event>
<event>
12    1  0.1596842E-001  0.6214591E+03  0.7818608E-02  0.9862061E-01
         21   -1    0    0  501  502  0.00000000000E+00  0.00000000000E+00  0.79940068646E+03  0.79940068646E+03  0.00000000000E+00 0. -1.
         21   -1    0    0  502  503 -0.00000000000E+00 -0.00000000000E+00 -0.75699142412E+03  0.75699142412E+03  0.00000000000E+00 0.  1.
         -6    2    1    2    0  503  0.43113427791E+03  0.41219930869E+03 -0.44713274392E+03  0.76559719199E+03  0.17443145939E+03 0.  0.
        -24    2    3    3    0    0  0.27053430717E+03  0.25283591649E+03 -0.19279326438E+03  0.42515673871E+03  0.80462399050E+02 0.  0.
          6    2    1    2  501    0 -0.43113427791E+03 -0.41219930869E+03  0.48954200625E+03  0.79079491859E+03  0.17297454064E+03 0.  0.
         24    2    5    5    0    0 -0.22285307635E+03 -0.24510547611E+03  0.18826247361E+03  0.38818734960E+03  0.74205602015E+02 0.  0.
          5    1    5    5  501    0 -0.20828120157E+03 -0.16709383258E+03  0.30127953265E+03  0.40260756899E+03  0.47000000000E+01 0. -1.
        -11    1    6    6    0    0 -0.19033237008E+03 -0.23818822150E+03  0.15883012788E+03  0.34378343398E+03  0.00000000000E+00 0.  1.
         12    1    6    6    0    0 -0.32520706270E+02 -0.69172546085E+01  0.29432345723E+02  0.44403915619E+02  0.00000000000E+00 0. -1.
         -5    1    3    3    0  503  0.16059997075E+03  0.15936339220E+03 -0.25433947953E+03  0.34044045327E+03  0.47000000000E+01 0.  1.
         11    1    4    4    0    0  0.13251208588E+03  0.70072222343E+02 -0.74974990593E+02  0.16760315767E+03  0.00000000000E+00 0. -1.
        -12    1    4    4    0    0  0.13802222129E+03  0.18276369415E+03 -0.11781827379E+03  0.25755358104E+03  0.00000000000E+00 0.  1.
</event>
<event>
12    1  0.1596842E-001  0.2162958E+03  0.7818608E-02  0.1136748E+00
         21   -1    0    0  503  502  0.00000000000E+00  0.00000000000E+00  0.75145591544E+03  0.75145591544E+03  0.00000000000E+00 0. -1.
         21   -1    0    0  501  503 -0.00000000000E+00 -0.00000000000E+00 -0.77404565088E+02  0.77404565088E+02  0.00000000000E+00 0. -1.
          6    2    1    2  501    0  0.10190672807E+03  0.81578357014E+02  0.15327089644E+03  0.26509588061E+03  0.17246405035E+03 0.  0.
         24    2    3    3    0    0  0.14731082257E+02  0.91322548380E+02  0.65234079986E+02  0.14072902996E+03  0.83620344751E+02 0.  0.
         -6    2    1    2    0  502 -0.10190672807E+03 -0.81578357014E+02  0.52078045391E+03  0.56376459992E+03  0.17198323577E+03 0.  0.
        -24    2    5    5    0    0 -0.89081449728E+02  0.26196593906E+01  0.38434675973E+03  0.40286078816E+03  0.81437188177E+02 0.  0.
          5    1    3    3  501    0  0.87175645812E+02 -0.97441913662E+01  0.88036816453E+02  0.12436685064E+03  0.47000000000E+01 0. -1.
        -13    1    4    4    0    0  0.32623354500E+02  0.94517406966E+02  0.35935021463E+02  0.10625040822E+03  0.00000000000E+00 0.  1.
         14    1    4    4    0    0 -0.17892272244E+02 -0.31948585861E+01  0.29299058523E+02  0.34478621749E+02  0.00000000000E+00 0. -1.
         -5    1    5    5    0  502 -0.12825278340E+02 -0.84198016404E+02  0.13643369418E+03  0.16090381176E+03  0.47000000000E+01 0.  1.
         11    1    6    6    0    0 -0.74049764878E+01  0.26846381597E+02  0.16891741990E+03  0.17119771209E+03  0.00000000000E+00 0. -1.
        -12    1    6    6    0    0 -0.81676473241E+02 -0.24226722206E+02  0.21542933984E+03  0.23166307606E+03  0.00000000000E+00 0.  1.
</event>
<event>
12    1  0.1596842E-001  0.1720587E+03  0.7818608E-02  0.1175817E+00
         21   -1    0    0  501  502  0.00000000000E+00  0.00000000000E+00  0.41078658269E+02  0.41078658269E+02  0.00000000000E+00 0.  1.
         21   -1    0    0  502  503 -0.00000000000E+00 -0.00000000000E+00 -0.11105184481E+04  0.11105184481E+04  0.00000000000E+00 0.  1.
         -6    2    1    2    0  503  0.31736266598E+02  0.29202987617E+01 -0.87619405866E+03  0.89285377932E+03  0.16868943075E+03 0.  0.
        -24    2    3    3    0    0  0.21297260102E+02  0.27658301694E+02 -0.24290716573E+03  0.25898051090E+03  0.82755416297E+02 0.  0.
          6    2    1    2  501    0 -0.31736266598E+02 -0.29202987617E+01 -0.19324573121E+03  0.25874332710E+03  0.16908127608E+03 0.  0.
         24    2    5    5    0    0  0.77483715145E+01  0.52566009887E+02 -0.91556327610E+02  0.13626642356E+03  0.85806493974E+02 0.  0.
          5    1    5    5  501    0 -0.39484638113E+02 -0.55486308648E+02 -0.10168940360E+03  0.12247690354E+03  0.47000000000E+01 0. -1.
        -13    1    6    6    0    0  0.31868812092E+02  0.41062558493E+01 -0.27327097226E+01  0.32248259235E+02  0.00000000000E+00 0.  1.
         14    1    6    6    0    0 -0.24120440578E+02  0.48459754037E+02 -0.88823617887E+02  0.10401816433E+03  0.00000000000E+00 0. -1.
         -5    1    3    3    0  503  0.10439006496E+02 -0.24738002932E+02 -0.63328689293E+03  0.63387326841E+03  0.47000000000E+01 0.  1.
         11    1    4    4    0    0  0.17473957361E+02 -0.27460446308E+01 -0.40246165060E+01  0.18140492964E+02  0.00000000000E+00 0. -1.
        -12    1    4    4    0    0  0.38233027415E+01  0.30404346324E+02 -0.23888254922E+03  0.24084001794E+03  0.00000000000E+00 0.  1.
</event>
<event>
12    1  0.1596842E-001  0.1761560E+03  0.7818608E-02  0.1171612E+00
         21   -1    0    0  503  502  0.00000000000E+00  0.00000000000E+00  0.43958586454E+03  0.43958586454E+03  0.00000000000E+00 0.  1.
         21   -1    0    0  501  503 -0.00000000000E+00 -0.00000000000E+00 -0.34122932991E+03  0.34122932991E+03  0.00000000000E+00 0.  1.
          6    2    1    2  501    0  0.34975890665E+02 -0.24582042637E+01 -0.29854281367E+03  0.34663921991E+03  0.17263134560E+03 0.  0.
         24    2    3    3    0    0  0.31927988175E+02  0.16889850187E+02 -0.57090139459E+02  0.10434782343E+03  0.79526855607E+02 0.  0.
         -6    2    1    2    0  502 -0.34975890665E+02  0.24582042637E+01  0.39689934830E+03  0.43417597454E+03  0.17248283536E+03 0.  0.
        -24    2    5    5    0    0 -0.21398571085E+02  0.51606293026E+02  0.35552324433E+03  0.36834323029E+03  0.78478339163E+02 0.  0.
          5    1    3    3  501    0  0.30479024902E+01 -0.19348054451E+02 -0.24145267422E+03  0.24229139648E+03  0.47000000000E+01 0. -1.
        -13    1    4    4    0    0 -0.13101870342E+02  0.15580588822E+02 -0.55671370476E+02  0.59276599474E+02  0.00000000000E+00 0.  1.
         14    1    4    4    0    0  0.45029858517E+02  0.13092613650E+01 -0.14187689824E+01  0.45071223955E+02  0.00000000000E+00 0. -1.
         -5    1    5    5    0  502 -0.13577319580E+02 -0.49148088762E+02  0.41376103970E+02  0.65832744252E+02  0.47000000000E+01 0.  1.
         13    1    6    6    0    0  0.26097632264E+02  0.51026961544E+01  0.63364985883E+02  0.68718595400E+02  0.00000000000E+00 0. -1.
        -14    1    6    6    0    0 -0.47496203349E+02  0.46503596872E+02  0.29215825845E+03  0.29962463489E+03  0.00000000000E+00 0.  1.
</event>
<event>
12    1  0.1596842E-001  0.2010243E+03  0.7818608E-02  0.1149094E+00
         21   -1    0    0  501  502  0.00000000000E+00  0.00000000000E+00  0.23602793750E+03  0.23602793750E+03  0.00000000000E+00 0.  1.
         21   -1    0    0  502  503 -0.00000000000E+00 -0.00000000000E+00 -0.35819692923E+03  0.35819692923E+03  0.00000000000E+00 0.  1.
         -6    2    1    2    0  503 -0.10291099243E+03 -0.12935587813E+02 -0.27632674920E+03  0.34171219394E+03  0.17219973684E+03 0.  0.
        -24    2    3    3    0    0 -0.82008306759E+01 -0.52463837604E+02 -0.11506082206E+03  0.15050213530E+03  0.81192315370E+02 0.  0.
          6    2    1    2  501    0  0.10291099243E+03  0.12935587813E+02  0.15415775748E+03  0.25251267279E+03  0.17099717522E+03 0.  0.
         24    2    5    5    0    0  0.35293279205E+02 -0.55404565404E+02  0.67058388990E+02  0.12270157282E+03  0.79016245257E+02 0.  0.
          5    1    5    5  501    0  0.67617713220E+02  0.68340153217E+02  0.87099368491E+02  0.12981109997E+03  0.47000000000E+01 0. -1.
        -13    1    6    6    0    0  0.46742358178E+02 -0.57698574938E+00  0.30598414790E+02  0.55869884090E+02  0.00000000000E+00 0.  1.
         14    1    6    6    0    0 -0.11449078973E+02 -0.54827579655E+02  0.36459974200E+02  0.66831688732E+02  0.00000000000E+00 0. -1.
         -5    1    3    3    0  503 -0.94710161749E+02  0.39528249791E+02 -0.16126592714E+03  0.19121005864E+03  0.47000000000E+01 0.  1.
         13    1    4    4    0    0  0.30071158782E+02  0.22321630666E+00 -0.50674075793E+02  0.58925260912E+02  0.00000000000E+00 0. -1.
        -14    1    4    4    0    0 -0.38271989458E+02 -0.52687053911E+02 -0.64386746272E+02  0.91576874386E+02  0.00000000000E+00 0.  1.
</event>
<event>
12    1  0.1596842E-001  0.2242648E+03  0.7818608E-02  0.1130803E+00
         21   -1    0    0  503  502  0.00000000000E+00  0.00000000000E+00  0.41680606306E+03  0.41680606306E+03  0.00000000000E+00 0.  1.
         21   -1    0    0  501  503 -0.00000000000E+00 -0.00000000000E+00 -0.13195756475E+03  0.13195756475E+03  0.00000000000E+00 0.  1.
          6    2    1    2  501    0 -0.12918241619E+03 -0.63529145977E+02  0.22341508517E+03  0.31655807646E+03  0.17196123532E+03 0.  0.
         24    2    3    3    0    0 -0.13673672647E+03 -0.94977192628E+02  0.21305207055E+03  0.28227208349E+03  0.81047793714E+02 0.  0.
         -6    2    1    2    0  502  0.12918241619E+03  0.63529145977E+02  0.61433413142E+02  0.23220555135E+03  0.17152639677E+03 0.  0.
        -24    2    5    5    0    0  0.23760838860E+02  0.80526319990E+02  0.49440250057E+02  0.12464840909E+03  0.77742021385E+02 0.  0.
          5    1    3    3  501    0  0.75543102870E+01  0.31448046651E+02  0.10363014617E+02  0.34285992971E+02  0.47000000000E+01 0. -1.
        -13    1    4    4    0    0 -0.79068417411E+02 -0.39306018022E+02  0.16932452239E+03  0.19096484380E+03  0.00000000000E+00 0.  1.
         14    1    4    4    0    0 -0.57668309061E+02 -0.55671174606E+02  0.43727548164E+02  0.91307239693E+02  0.00000000000E+00 0. -1.
         -5    1    5    5    0  502  0.10542157733E+03 -0.16997174013E+02  0.11993163084E+02  0.10755714226E+03  0.47000000000E+01 0.  1.
         13    1    6    6    0    0  0.42123255117E+02  0.68195055283E+02  0.11840842904E+02  0.81025549966E+02  0.00000000000E+00 0. -1.
        -14    1    6    6    0    0 -0.18362416257E+02  0.12331264707E+02  0.37599407153E+02  0.43622859126E+02  0.00000000000E+00 0.  1.
</event>
<event>
12    1  0.1596842E-001  0.1830794E+03  0.7818608E-02  0.1165077E+00
         21   -1    0    0  503  502  0.00000000000E+00  0.00000000000E+00  0.84801173635E+02  0.84801173635E+02  0.00000000000E+00 0.  1.
         21   -1    0    0  501  503 -0.00000000000E+00 -0.00000000000E+00 -0.14271158783E+04  0.14271158783E+04  0.00000000000E+00 0.  1.
          6    2    1    2  501    0 -0.36557965163E+01  0.59449395295E+02 -0.13150595678E+04  0.13277423389E+04  0.17311977400E+03 0.  0.
         24    2    3    3    0    0 -0.30026337766E+02 -0.28040549043E+02 -0.74946459285E+03  0.75479412002E+03  0.79555856694E+02 0.  0.
         -6    2    1    2    0  502  0.36557965163E+01 -0.59449395295E+02 -0.27255136877E+02  0.18417471306E+03  0.17213334075E+03 0.  0.
        -24    2    5    5    0    0 -0.33776915635E+02 -0.95731052422E+02 -0.28812190972E+02  0.13180982979E+03  0.78983380867E+02 0.  0.
          5    1    3    3  501    0  0.26370541250E+02  0.87489944338E+02 -0.56559497498E+03  0.57294821889E+03  0.47000000000E+01 0. -1.
        -11    1    4    4    0    0  0.26851566163E+02 -0.34440560835E+01 -0.26608785005E+03  0.26746142166E+03  0.00000000000E+00 0.  1.
         12    1    4    4    0    0 -0.56877903929E+02 -0.24596492960E+02 -0.48337674279E+03  0.48733269836E+03  0.00000000000E+00 0. -1.
         -5    1    5    5    0  502  0.37432712151E+02  0.36281657127E+02  0.15570540948E+01  0.52364883274E+02  0.47000000000E+01 0.  1.
         11    1    6    6    0    0  0.24812602815E+02 -0.26255672854E+02  0.10703550736E+01  0.36140991622E+02  0.00000000000E+00 0. -1.
        -12    1    6    6    0    0 -0.58589518450E+02 -0.69475379568E+02 -0.29882546045E+02  0.95668838168E+02  0.00000000000E+00 0.  1.
</event>
<event>
12    1  0.1596842E-001  0.1741772E+03  0.7818608E-02  0.1173648E+00
         21   -1    0    0  503  502  0.00000000000E+00  0.00000000000E+00  0.26129951771E+03  0.26129951771E+03  0.00000000000E+00 0. -1.
         21   -1    0    0  501  503 -0.00000000000E+00 -0.00000000000E+00 -0.14813267848E+03  0.14813267848E+03  0.00000000000E+00 0. -1.
          6    2    1    2  501    0 -0.27427091904E+02 -0.15236725609E+01 -0.38997509784E+02  0.17814947889E+03  0.17164458661E+03 0.  0.
         24    2    3    3    0    0 -0.10019871640E+02 -0.57160588368E+02  0.12605804556E+02  0.10015287789E+03  0.80647144711E+02 0.  0.
         -6    2    1    2    0  502  0.27427091904E+02  0.15236725609E+01  0.15216434901E+03  0.23128271729E+03  0.17199749783E+03 0.  0.
        -24    2    5    5    0    0 -0.24828520305E+02 -0.36632796147E+02  0.14737874848E+03  0.16623229774E+03  0.62882939938E+02 0.  0.
          5    1    3    3  501    0 -0.17407220264E+02  0.55636915807E+02 -0.51603314340E+02  0.77996601007E+02  0.47000000000E+01 0. -1.
        -11    1    4    4    0    0  0.54595745305E+01  0.58513116094E+01  0.31557507738E+02  0.32556429415E+02  0.00000000000E+00 0.  1.
         12    1    4    4    0    0 -0.15479446171E+02 -0.63011899977E+02 -0.18951703182E+02  0.67596448471E+02  0.00000000000E+00 0. -1.
         -5    1    5    5    0  502  0.52255612210E+02  0.38156468708E+02  0.47856005374E+01  0.65050419554E+02  0.47000000000E+01 0.  1.
         13    1    6    6    0    0  0.73117976213E+00 -0.44146363122E+02  0.57547335098E+02  0.72533659618E+02  0.00000000000E+00 0. -1.
        -14    1    6    6    0    0 -0.25559700068E+02  0.75135669751E+01  0.89831413379E+02  0.93698638122E+02  0.00000000000E+00 0.  1.
</event>
<event>
12    1  0.1596842E-001  0.2006372E+03  0.7818608E-02  0.1149295E+00
         21   -1    0    0  501  502  0.00000000000E+00  0.00000000000E+00  0.91824452526E+02  0.91824452526E+02  0.00000000000E+00 0.  1.
         21   -1    0    0  502  503 -0.00000000000E+00 -0.00000000000E+00 -0.48300545228E+03  0.48300545228E+03  0.00000000000E+00 0.  1.
         -6    2    1    2    0  503  0.10135015414E+03  0.52500640653E+01 -0.10711178036E+03  0.22705039328E+03  0.17256746705E+03 0.  0.
        -24    2    3    3    0    0  0.80747140468E-02  0.39474258349E+02 -0.26943828579E+02  0.93295008240E+02  0.80123476751E+02 0.  0.
          6    2    1    2  501    0 -0.10135015414E+03 -0.52500640653E+01 -0.28406921940E+03  0.34777951152E+03  0.17307758465E+03 0.  0.
         24    2    5    5    0    0  0.66099301078E+01  0.41999971912E+01 -0.14939074600E+03  0.17484870269E+03  0.90515980289E+02 0.  0.
          5    1    5    5  501    0 -0.10796008425E+03 -0.94500612565E+01 -0.13467847340E+03  0.17293080884E+03  0.47000000000E+01 0. -1.
        -11    1    6    6    0    0 -0.85704772269E+01  0.34831670883E+02 -0.13141767204E+03  0.13622519187E+03  0.00000000000E+00 0.  1.
         12    1    6    6    0    0  0.15180407335E+02 -0.30631673692E+02 -0.17973073964E+02  0.38623510815E+02  0.00000000000E+00 0. -1.
         -5    1    3    3    0  503  0.10134207942E+03 -0.34224194283E+02 -0.80167951776E+02  0.13375538504E+03  0.47000000000E+01 0.  1.
         13    1    4    4    0    0 -0.20678395196E+02  0.19718148706E+02 -0.49305936963E+02  0.56986637347E+02  0.00000000000E+00 0. -1.
        -14    1    4    4    0    0  0.20686469910E+02  0.19756109643E+02  0.22362108384E+02  0.36308370893E+02  0.00000000000E+00 0.  1.
</event>
<event>
12    1  0.1596842E-001  0.2082456E+03  0.7818608E-02  0.1143028E+00
         21   -1    0    0  501  502  0.00000000000E+00  0.00000000000E+00  0.70543245118E+03  0.70543245118E+03  0.00000000000E+00 0. -1.
         21   -1    0    0  502  503 -0.00000000000E+00 -0.00000000000E+00 -0.18959316787E+03  0.18959316787E+03  0.00000000000E+00 0. -1.
         -6    2    1    2    0  503 -0.10536830219E+03 -0.50192989511E+02 -0.11015667320E+03  0.23530054257E+03  0.17207567341E+03 0.  0.
        -24    2    3    3    0    0 -0.25056068383E+02 -0.76761950503E+02 -0.94792716195E+02  0.14919534085E+03  0.82178994158E+02 0.  0.
          6    2    1    2  501    0  0.10536830219E+03  0.50192989511E+02  0.62599595652E+03  0.65972507648E+03  0.17246571735E+03 0.  0.
         24    2    5    5    0    0 -0.44301843446E+01  0.51556766239E+02  0.23416129715E+03  0.25276800526E+03  0.79890079013E+02 0.  0.
          5    1    5    5  501    0  0.10979848654E+03 -0.13637767280E+01  0.39183465937E+03  0.40695707122E+03  0.47000000000E+01 0. -1.
        -13    1    6    6    0    0  0.32858890445E+01 -0.11112294481E+02  0.14926299902E+01  0.11683668077E+02  0.00000000000E+00 0.  1.
         14    1    6    6    0    0 -0.77160733891E+01  0.62669060720E+02  0.23266866716E+03  0.24108433719E+03  0.00000000000E+00 0. -1.
         -5    1    3    3    0  503 -0.80312233810E+02  0.26568960992E+02 -0.15363957004E+02  0.86105201716E+02  0.47000000000E+01 0.  1.
         13    1    4    4    0    0  0.28332450722E+02 -0.40556255147E+02 -0.52061078921E+02  0.71818476271E+02  0.00000000000E+00 0. -1.
        -14    1    4    4    0    0 -0.53388519105E+02 -0.36205695356E+02 -0.42731637274E+02  0.77376864582E+02  0.00000000000E+00 0.  1.
</event>
<event>
12    1  0.1596842E-001  0.2383373E+03  0.7818608E-02  0.1121031E+00
         21   -1    0    0  503  502  0.00000000000E+00  0.00000000000E+00  0.36617931155E+03  0.36617931155E+03  0.00000000000E+00 0. -1.
         21   -1    0    0  501  503 -0.00000000000E+00 -0.00000000000E+00 -0.78084456030E+03  0.78084456030E+03  0.00000000000E+00 0. -1.
          6    2    1    2  501    0 -0.13473305240E+03 -0.94714454642E+02 -0.72085933448E+03  0.75900389550E+03  0.17124517495E+03 0.  0.
         24    2    3    3    0    0 -0.37633650560E+02 -0.61273554729E+02 -0.54192329202E+03  0.55263823722E+03  0.80977939215E+02 0.  0.
         -6    2    1    2    0  502  0.13473305240E+03  0.94714454642E+02  0.30619408573E+03  0.38801997636E+03  0.17228134138E+03 0.  0.
        -24    2    5    5    0    0  0.14146145390E+03  0.12442239362E+03  0.26341162605E+03  0.33529178768E+03  0.86848276738E+02 0.  0.
          5    1    3    3  501    0 -0.97099401843E+02 -0.33440899912E+02 -0.17893604246E+03  0.20636565828E+03  0.47000000000E+01 0. -1.
        -13    1    4    4    0    0  0.18105603849E+02 -0.28857976386E+02 -0.91750861063E+02  0.97871426871E+02  0.00000000000E+00 0.  1.
         14    1    4    4    0    0 -0.55739254409E+02 -0.32415578343E+02 -0.45017243095E+03  0.45476681035E+03  0.00000000000E+00 0. -1.
         -5    1    5    5    0  502 -0.67284014971E+01 -0.29707938980E+02  0.42782459682E+02  0.52728188681E+02  0.47000000000E+01 0.  1.
         13    1    6    6    0    0  0.14038417681E+03  0.77564798753E+02  0.19768186961E+03  0.25456263802E+03  0.00000000000E+00 0. -1.
        -14    1    6    6    0    0  0.10772770920E+01  0.46857594868E+02  0.65729756441E+02  0.80729149659E+02  0.00000000000E+00 0.  1.
</event>
<event>
12    1  0.1596842E-001  0.2207122E+03  0.7818608E-02  0.1133376E+00
         21   -1    0    0  503  502  0.00000000000E+00  0.00000000000E+00  0.27252764978E+03  0.27252764978E+03  0.00000000000E+00 0.  1.
         21   -1    0    0  501  503 -0.00000000000E+00 -0.00000000000E+00 -0.18355177474E+03  0.18355177474E+03  0.00000000000E+00 0.  1.
          6    2    1    2  501    0  0.13788423163E+03 -0.11120687049E+02  0.72109643850E+01  0.22070868963E+03  0.17182722909E+03 0.  0.
         24    2    3    3    0    0  0.31259035111E+02  0.43452977454E+02  0.35093317040E+02  0.97636625457E+02  0.73729785054E+02 0.  0.
         -6    2    1    2    0  502 -0.13788423163E+03  0.11120687049E+02  0.81764910659E+02  0.23537073489E+03  0.17198299688E+03 0.  0.
        -24    2    5    5    0    0 -0.14662557274E+03  0.29627857648E+02  0.10953574201E+03  0.20055356266E+03  0.76464267405E+02 0.  0.
          5    1    3    3  501    0  0.10662519652E+03 -0.54573664503E+02 -0.27882352655E+02  0.12307206417E+03  0.47000000000E+01 0. -1.
        -11    1    4    4    0    0  0.48159863216E+02  0.11972891657E+02  0.31768738910E+01  0.49727407808E+02  0.00000000000E+00 0.  1.
         12    1    4    4    0    0 -0.16900828105E+02  0.31480085798E+02  0.31916443149E+02  0.47909217649E+02  0.00000000000E+00 0. -1.
         -5    1    5    5    0  502  0.87413411032E+01 -0.18507170600E+02 -0.27770831355E+02  0.34817172229E+02  0.47000000000E+01 0.  1.
         13    1    6    6    0    0 -0.66556892819E+02 -0.14580822676E+02  0.16533289412E+02  0.70112552588E+02  0.00000000000E+00 0. -1.
        -14    1    6    6    0    0 -0.80068679916E+02  0.44208680324E+02  0.93002452602E+02  0.13044101008E+03  0.00000000000E+00 0.  1.
</event>
<event>
12    1  0.1596842E-001  0.2873950E+03  0.7818608E-02  0.1091850E+00
         21   -1    0    0  503  502  0.00000000000E+00  0.00000000000E+00  0.11566887448E+04  0.11566887448E+04  0.00000000000E+00 0. -1.
         21   -1    0    0  501  503 -0.00000000000E+00 -0.00000000000E+00 -0.82485046917E+02  0.82485046917E+02  0.00000000000E+00 0.  1.
          6    2    1    2  501    0 -0.22800518754E+03  0.23154800105E+02  0.30670001246E+03  0.41962648185E+03  0.17175266028E+03 0.  0.
         24    2    3    3    0    0 -0.11704861429E+03 -0.53336826052E+02  0.16352403709E+03  0.22294455603E+03  0.80118470020E+02 0.  0.
         -6    2    1    2    0  502  0.22800518754E+03 -0.23154800105E+02  0.76750368543E+03  0.81954730987E+03  0.17341676866E+03 0.  0.
        -24    2    5    5    0    0  0.10035274680E+03 -0.68161979433E+02  0.47131430048E+03  0.49386182727E+03  0.83938104386E+02 0.  0.
          5    1    3    3  501    0 -0.11095657326E+03  0.76491626156E+02  0.14317597536E+03  0.19668192581E+03  0.47000000000E+01 0. -1.
        -11    1    4    4    0    0 -0.44715915958E+02 -0.40586547448E+02  0.12762895820E+03  0.14119465976E+03  0.00000000000E+00 0.  1.
         12    1    4    4    0    0 -0.72332698327E+02 -0.12750278603E+02  0.35895078892E+02  0.81749896272E+02  0.00000000000E+00 0. -1.
         -5    1    5    5    0  502  0.12765244075E+03  0.45007179328E+02  0.29618938495E+03  0.32568548260E+03  0.47000000000E+01 0.  1.
         11    1    6    6    0    0  0.28528153189E+02  0.55293808248E+01  0.22568625365E+03  0.22754936753E+03  0.00000000000E+00 0. -1.
        -12    1    6    6    0    0  0.71824593608E+02 -0.73691360258E+02  0.24562804683E+03  0.26631245974E+03  0.00000000000E+00 0.  1.
</event>
<event>
12    1  0.1596842E-001  0.2012534E+03  0.7818608E-02  0.1148728E+00
         21   -1    0    0  503  502  0.00000000000E+00  0.00000000000E+00  0.42170128104E+02  0.42170128104E+02  0.00000000000E+00 0.  1.
         21   -1    0    0  501  503 -0.00000000000E+00 -0.00000000000E+00 -0.10285335034E+04  0.10285335034E+04  0.00000000000E+00 0.  1.
          6    2    1    2  501    0 -0.69228323285E+02 -0.77161113749E+02 -0.35471710507E+03  0.40783227325E+03  0.17250084132E+03 0.  0.
         24    2    3    3    0    0 -0.29379152760E+02 -0.27921563616E+02 -0.32615336797E+03  0.33818698076E+03  0.79697341145E+02 0.  0.
         -6    2    1    2    0  502  0.69228323285E+02  0.77161113749E+02 -0.63164627024E+03  0.66287135827E+03  0.17226441503E+03 0.  0.
        -24    2    5    5    0    0  0.43114606690E+02  0.40998312956E+01 -0.15972465645E+03  0.18459113000E+03  0.81769440936E+02 0.  0.
          5    1    3    3  501    0 -0.39849170525E+02 -0.49239550133E+02 -0.28563737100E+02  0.69645292489E+02  0.47000000000E+01 0. -1.
        -13    1    4    4    0    0 -0.51691147401E+02 -0.32853484194E+02 -0.28080320616E+03  0.28740523087E+03  0.00000000000E+00 0.  1.
         14    1    4    4    0    0  0.22311994641E+02  0.49319205779E+01 -0.45350161815E+02  0.50781749891E+02  0.00000000000E+00 0. -1.
         -5    1    5    5    0  502  0.26113716595E+02  0.73061282453E+02 -0.47192161379E+03  0.47828022826E+03  0.47000000000E+01 0.  1.
         13    1    6    6    0    0 -0.23417007773E+02 -0.68422250167E+01 -0.32912577886E+02  0.40968403427E+02  0.00000000000E+00 0. -1.
        -14    1    6    6    0    0  0.66531614463E+02  0.10942056312E+02 -0.12681207856E+03  0.14362272658E+03  0.00000000000E+00 0.  1.
</event>
<event>
12    1  0.1596842E-001  0.2440337E+03  0.7818608E-02  0.1118141E+00
         21   -1    0    0  503  502  0.00000000000E+00  0.00000000000E+00  0.28330934774E+03  0.28330934774E+03  0.00000000000E+00 0.  1.
         21   -1    0    0  501  503 -0.00000000000E+00 -0.00000000000E+00 -0.30497724084E+03  0.30497724084E+03  0.00000000000E+00 0.  1.
          6    2    1    2  501    0 -0.16401252233E+03 -0.56050965393E+02 -0.17933818778E+03  0.30284422969E+03  0.17178656425E+03 0.  0.
         24    2    3    3    0    0 -0.15443463485E+02  0.79299986987E+01 -0.72410202953E+02  0.10888028213E+03  0.79437352059E+02 0.  0.
         -6    2    1    2    0  502  0.16401252233E+03  0.56050965393E+02  0.15767029468E+03  0.28544235889E+03  0.16302024481E+03 0.  0.
        -24    2    5    5    0    0  0.41527706791E+02  0.48780490184E+02  0.21265683398E+02  0.10191116855E+03  0.76351622973E+02 0.  0.
          5    1    3    3  501    0 -0.14856905885E+03 -0.63980964091E+02 -0.10692798483E+03  0.19396394756E+03  0.47000000000E+01 0. -1.
        -13    1    4    4    0    0 -0.32162467132E+02 -0.20185125965E+02 -0.65096627270E+02  0.75362022825E+02  0.00000000000E+00 0.  1.
         14    1    4    4    0    0  0.16719003648E+02  0.28115124664E+02 -0.73135756825E+01  0.33518259309E+02  0.00000000000E+00 0. -1.
         -5    1    5    5    0  502  0.12248481554E+03  0.72704752087E+01  0.13640461128E+03  0.18353119034E+03  0.47000000000E+01 0.  1.
         13    1    6    6    0    0 -0.11419497821E+02  0.32328877478E+02  0.30274821656E+02  0.45739764711E+02  0.00000000000E+00 0. -1.
        -14    1    6    6    0    0  0.52947204612E+02  0.16451612705E+02 -0.90091382588E+01  0.56171403837E+02  0.00000000000E+00 0.  1.
</event>
<event>
12    1  0.1596842E-001  0.2048471E+03  0.7818608E-02  0.1147049E+00
         21   -1    0    0  503  502  0.00000000000E+00  0.00000000000E+00  0.46823464324E+03  0.46823464324E+03  0.00000000000E+00 0. -1.
         21   -1    0    0  501  503 -0.00000000000E+00 -0.00000000000E+00 -0.96789691141E+02  0.96789691141E+02  0.00000000000E+00 0. -1.
          6    2    1    2  501    0 -0.92801255651E+02 -0.30356357932E+02  0.92446767144E+02  0.21889962580E+03  0.17273407279E+03 0.  0.
         24    2    3    3    0    0 -0.40799805070E+02 -0.55163302494E+02  0.11501819743E+03  0.15684243584E+03  0.81625669399E+02 0.  0.
         -6    2    1    2    0  502  0.92801255651E+02  0.30356357932E+02  0.27899818496E+03  0.34612470858E+03  0.18007982998E+03 0.  0.
        -24    2    5    5    0    0  0.33317465464E+02  0.35443567933E+02  0.26981030989E+03  0.28553834008E+03  0.79801255116E+02 0.  0.
          5    1    3    3  501    0 -0.52001450580E+02  0.24806944562E+02 -0.22571430283E+02  0.62057189962E+02  0.47000000000E+01 0. -1.
        -11    1    4    4    0    0  0.37475614131E+01 -0.37260724804E+02  0.62726808246E+01  0.37970414195E+02  0.00000000000E+00 0.  1.
         12    1    4    4    0    0 -0.44547366483E+02 -0.17902577690E+02  0.10874551660E+03  0.11887202164E+03  0.00000000000E+00 0. -1.
         -5    1    5    5    0  502  0.59483790187E+02 -0.50872100001E+01  0.91878750680E+01  0.60586368507E+02  0.47000000000E+01 0.  1.
         13    1    6    6    0    0  0.33059384584E+02 -0.19422655929E+02  0.10086112984E+03  0.10790333630E+03  0.00000000000E+00 0. -1.
        -14    1    6    6    0    0  0.25808088004E+00  0.54866223862E+02  0.16894918006E+03  0.17763500378E+03  0.00000000000E+00 0.  1.
</event>
<event>
12    1  0.1596842E-001  0.2001990E+03  0.7818608E-02  0.1149729E+00
         21   -1    0    0  503  502  0.00000000000E+00  0.00000000000E+00  0.33261024212E+03  0.33261024212E+03  0.00000000000E+00 0. -1.
         21   -1    0    0  501  503 -0.00000000000E+00 -0.00000000000E+00 -0.14374744706E+03  0.14374744706E+03  0.00000000000E+00 0. -1.
          6    2    1    2  501    0 -0.27276422973E+02 -0.95634333547E+02 -0.21230754261E+01  0.20021025371E+03  0.17375186111E+03 0.  0.
         24    2    3    3    0    0 -0.34266928339E+02  0.86109192377E+01 -0.29233095521E+02  0.92168673367E+02  0.79950735886E+02 0.  0.
         -6    2    1    2    0  502  0.27276422973E+02  0.95634333547E+02  0.19098587048E+03  0.27614743547E+03  0.17289266726E+03 0.  0.
        -24    2    5    5    0    0 -0.18406665698E+02  0.10447270001E+03  0.77894099983E+02  0.15376729057E+03  0.79520679369E+02 0.  0.
          5    1    3    3  501    0  0.69905053665E+01 -0.10424525278E+03  0.27110020095E+02  0.10804158034E+03  0.47000000000E+01 0. -1.
        -11    1    4    4    0    0  0.24183151783E+02  0.88586129868E+01 -0.20816194937E+02  0.33115160061E+02  0.00000000000E+00 0.  1.
         12    1    4    4    0    0 -0.58450080122E+02 -0.24769374907E+00 -0.84169005836E+01  0.59053513307E+02  0.00000000000E+00 0. -1.
         -5    1    5    5    0  502  0.45683088670E+02 -0.88383664648E+01  0.11309177050E+03  0.12238014490E+03  0.47000000000E+01 0.  1.
         11    1    6    6    0    0 -0.20184041558E+02  0.10644090583E+03  0.90327876406E+02  0.14105384512E+03  0.00000000000E+00 0. -1.
        -12    1    6    6    0    0  0.17773758603E+01 -0.19682058166E+01 -0.12433776423E+02  0.12713445450E+02  0.00000000000E+00 0.  1.
</event>
<event>
12    1  0.1596842E-001  0.1749253E+03  0.7818608E-02  0.1172964E+00
         21   -1    0    0  503  502  0.00000000000E+00  0.00000000000E+00  0.99217915512E+03  0.99217915512E+03  0.00000000000E+00 0. -1.
         21   -1    0    0  501  503 -0.00000000000E+00 -0.00000000000E+00 -0.30744786550E+02  0.30744786550E+02  0.00000000000E+00 0. -1.
          6    2    1    2  501    0  0.20096726563E+02  0.26764067718E+02  0.49292596580E+03  0.52304385227E+03  0.17169353480E+03 0.  0.
         24    2    3    3    0    0 -0.37832003065E+01  0.80894408203E+02  0.35344564126E+03  0.37146154590E+03  0.80632753113E+02 0.  0.
         -6    2    1    2    0  502 -0.20096726563E+02 -0.26764067718E+02  0.46850840276E+03  0.49988008940E+03  0.17105492270E+03 0.  0.
        -24    2    5    5    0    0  0.75862449671E+01 -0.63465605507E+02  0.17166156242E+03  0.19945790910E+03  0.78932447690E+02 0.  0.
          5    1    3    3  501    0  0.23879926869E+02 -0.54130340485E+02  0.13948032455E+03  0.15158230637E+03  0.47000000000E+01 0. -1.
        -11    1    4    4    0    0  0.24197950786E+02  0.76328117811E+02  0.30494425620E+03  0.31528165468E+03  0.00000000000E+00 0.  1.
         12    1    4    4    0    0 -0.27981151093E+02  0.45662903920E+01  0.48501385055E+02  0.56179891213E+02  0.00000000000E+00 0. -1.
         -5    1    5    5    0  502 -0.27682971530E+02  0.36701537789E+02  0.29684684035E+03  0.30042218030E+03  0.47000000000E+01 0.  1.
         11    1    6    6    0    0  0.28254403577E+02  0.50153233907E+01  0.64741168874E+02  0.70815843830E+02  0.00000000000E+00 0. -1.
        -12    1    6    6    0    0 -0.20668158609E+02 -0.68480928898E+02  0.10692039354E+03  0.12864206527E+03  0.00000000000E+00 0.  1.
</event>
<event>
12    1  0.1596842E-001  0.1831285E+03  0.7818608E-02  0.1165061E+00
         21   -1    0    0  501  502  0.00000000000E+00  0.00000000000E+00  0.43055503625E+02  0.43055503625E+02  0.00000000000E+00 0.  1.
         21   -1    0    0  502  503 -0.00000000000E+00 -0.00000000000E+00 -0.82843272465E+03  0.82843272465E+03  0.00000000000E+00 0. -1.
         -6    2    1    2    0  503 -0.28190880439E+01  0.61311642101E+02 -0.50503294029E+03  0.53720974569E+03  0.17253688119E+03 0.  0.
        -24    2    3    3    0    0  0.31853371534E+02 -0.11624748039E+02 -0.15122583953E+03  0.17427249077E+03  0.79698647748E+02 0.  0.
          6    2    1    2  501    0  0.28190880439E+01 -0.61311642101E+02 -0.28034428074E+03  0.33427848259E+03  0.17141214503E+03 0.  0.
         24    2    5    5    0    0  0.61086128764E+02 -0.70858009007E+02 -0.17890460993E+03  0.21681241102E+03  0.79046755476E+02 0.  0.
          5    1    5    5  501    0 -0.58267040720E+02  0.95463669053E+01 -0.10143967081E+03  0.11746607157E+03  0.47000000000E+01 0. -1.
        -13    1    6    6    0    0  0.45277056621E+02 -0.51906511488E+02 -0.17935745529E+03  0.19212858860E+03  0.00000000000E+00 0.  1.
         14    1    6    6    0    0  0.15809072143E+02 -0.18951497519E+02  0.45284536074E+00  0.24683822417E+02  0.00000000000E+00 0. -1.
         -5    1    3    3    0  503 -0.34672459578E+02  0.72936390141E+02 -0.35380710076E+03  0.36293725492E+03  0.47000000000E+01 0.  1.
         13    1    4    4    0    0  0.36470101503E+02  0.52167944908E+01 -0.15238111569E+03  0.15677145042E+03  0.00000000000E+00 0. -1.
        -14    1    4    4    0    0 -0.46167299686E+01 -0.16841542530E+02  0.11552761575E+01  0.17501040352E+02  0.00000000000E+00 0.  1.
</event>
<event>
12    1  0.1596842E-001  0.2235414E+03  0.7818608E-02  0.1131470E+00
         21   -1    0    0  501  502  0.00000000000E+00  0.00000000000E+00  0.12318772866E+03  0.12318772866E+03  0.00000000000E+00 0. -1.
         21   -1    0    0  502  503 -0.00000000000E+00 -0.00000000000E+00 -0.43906192133E+03  0.43906192133E+03  0.00000000000E+00 0.  1.
         -6    2    1    2    0  503  0.35456988578E+02 -0.13847229004E+03 -0.77762443104E+02  0.23564901270E+03  0.17044555284E+03 0.  0.
        -24    2    3    3    0    0  0.10848071972E+02 -0.14222970752E+03 -0.96110406805E+01  0.16294123722E+03  0.78169714851E+02 0.  0.
          6    2    1    2  501    0 -0.35456988578E+02  0.13847229004E+03 -0.23811174956E+03  0.32660063729E+03  0.17186913002E+03 0.  0.
         24    2    5    5    0    0  0.23341615835E+02  0.93272700069E+02 -0.21731193990E+03  0.24943198500E+03  0.75810344372E+02 0.  0.
          5    1    5    5  501    0 -0.58798604413E+02  0.45199589966E+02 -0.20799809669E+02  0.77168652290E+02  0.47000000000E+01 0. -1.
        -13    1    6    6    0    0 -0.25887208656E+02  0.15320173148E+02 -0.48039051715E+02  0.56679853272E+02  0.00000000000E+00 0.  1.
         14    1    6    6    0    0  0.49228824491E+02  0.77952526921E+02 -0.16927288818E+03  0.19275213173E+03  0.00000000000E+00 0. -1.
         -5    1    3    3    0  503  0.24608916605E+02  0.37574174800E+01 -0.68151402424E+02  0.72707775478E+02  0.47000000000E+01 0.  1.
         11    1    4    4    0    0  0.11256802784E+01 -0.11508367092E+03  0.25121934275E+02  0.11779910887E+03  0.00000000000E+00 0. -1.
        -12    1    4    4    0    0  0.97223916938E+01 -0.27146036592E+02 -0.34732974956E+02  0.45142128352E+02  0.00000000000E+00 0.  1.
</event>
<event>
12    1  0.1596842E-001  0.2229638E+03  0.7818608E-02  0.1131714E+00
         21   -1    0    0  503  502  0.00000000000E+00  0.00000000000E+00  0.24106891063E+03  0.24106891063E+03  0.00000000000E+00 0.  1.
         21   -1    0    0  501  503 -0.00000000000E+00 -0.00000000000E+00 -0.48904858526E+03  0.48904858526E+03  0.00000000000E+00 0. -1.
          6    2    1    2  501    0  0.99252926889E+02 -0.10160936905E+03 -0.40167604673E+03  0.45940884520E+03  0.17186399611E+03 0.  0.
         24    2    3    3    0    0  0.27065128362E+02 -0.11875159795E+03 -0.18535396889E+03  0.23066823747E+03  0.63382006936E+02 0.  0.
         -6    2    1    2    0  502 -0.99252926889E+02  0.10160936905E+03  0.15369637210E+03  0.27070865069E+03  0.17171194304E+03 0.  0.
        -24    2    5    5    0    0 -0.46152658928E+02  0.48665416077E+02  0.43032285324E+01  0.10348693571E+03  0.78693312540E+02 0.  0.
          5    1    3    3  501    0  0.72187798527E+02  0.17142228894E+02 -0.21632207784E+03  0.22874060774E+03  0.47000000000E+01 0. -1.
        -11    1    4    4    0    0 -0.19715371727E+02 -0.28653459393E+02 -0.60111618563E+02  0.69448709879E+02  0.00000000000E+00 0.  1.
         12    1    4    4    0    0  0.46780500089E+02 -0.90098138554E+02 -0.12524235033E+03  0.16121952759E+03  0.00000000000E+00 0. -1.
         -5    1    5    5    0  502 -0.53100267961E+02  0.52943952977E+02  0.14939314357E+03  0.16722171498E+03  0.47000000000E+01 0.  1.
         13    1    6    6    0    0  0.16517586443E+02  0.29433997106E+02  0.15228187416E+02  0.37028212751E+02  0.00000000000E+00 0. -1.
        -14    1    6    6    0    0 -0.62670245372E+02  0.19231418970E+02 -0.10924958884E+02  0.66458722958E+02  0.00000000000E+00 0.  1.
</event>
<event>
12    1  0.1596842E-001  0.2098126E+03  0.7818608E-02  0.1141736E+00
         21   -1    0    0  501  502  0.00000000000E+00  0.00000000000E+00  0.78016208997E+03  0.78016208997E+03  0.00000000000E+00 0.  1.
         21   -1    0    0  502  503 -0.00000000000E+00 -0.00000000000E+00 -0.16083758304E+03  0.16083758304E+03  0.00000000000E+00 0.  1.
         -6    2    1    2    0  503 -0.84305031570E+02  0.85927213411E+02 -0.69508476298E+02  0.22092175917E+03  0.17170955432E+03 0.  0.
        -24    2    3    3    0    0 -0.37357932600E+02  0.11588102086E+03 -0.21479057665E+02  0.14723203304E+03  0.79949330909E+02 0.  0.
          6    2    1    2  501    0  0.84305031570E+02 -0.85927213411E+02  0.68883298323E+03  0.72007791384E+03  0.17184440306E+03 0.  0.
         24    2    5    5    0    0  0.83427941719E+02 -0.34953031106E+01  0.27983228681E+03  0.30282565346E+03  0.80155031331E+02 0.  0.
          5    1    5    5  501    0  0.87708985091E+00 -0.82431910300E+02  0.40900069642E+03  0.41725226038E+03  0.47000000000E+01 0. -1.
        -13    1    6    6    0    0  0.88351235100E+02 -0.17334073224E+01  0.15920940600E+03  0.18208948461E+03  0.00000000000E+00 0.  1.
         14    1    6    6    0    0 -0.49232933817E+01 -0.17618957882E+01  0.12062288081E+03  0.12073616885E+03  0.00000000000E+00 0. -1.
         -5    1    3    3    0  503 -0.46947098970E+02 -0.29953807445E+02 -0.48029418633E+02  0.73689726125E+02  0.47000000000E+01 0.  1.
         11    1    4    4    0    0 -0.61215840487E+02  0.93147429437E+02 -0.84052217054E+01  0.11177866742E+03  0.00000000000E+00 0. -1.
        -12    1    4    4    0    0  0.23857907887E+02  0.22733591418E+02 -0.13073835960E+02  0.35453365626E+02  0.00000000000E+00 0.  1.
</event>
<event>
12    1  0.1596842E-001  0.2963347E+03  0.7818608E-02  0.1087294E+00
         21   -1    0    0  503  502  0.00000000000E+00  0.00000000000E+00  0.50495649650E+03  0.50495649650E+03  0.00000000000E+00 0. -1.
         21   -1    0    0  501  503 -0.00000000000E+00 -0.00000000000E+00 -0.55583540517E+03  0.55583540517E+03  0.00000000000E+00 0.  1.
          6    2    1    2  501    0  0.21232054354E+03 -0.11209853891E+03 -0.46567104594E+03  0.55196354885E+03  0.17368978267E+03 0.  0.
         24    2    3    3    0    0  0.17355867233E+03 -0.14443236047E+03 -0.33384938833E+03  0.41072970698E+03  0.79121164124E+02 0.  0.
         -6    2    1    2    0  502 -0.21232054354E+03  0.11209853891E+03  0.41479213727E+03  0.50882835281E+03  0.17090254490E+03 0.  0.
        -24    2    5    5    0    0 -0.19645877196E+03  0.14589506593E+03  0.35509045070E+03  0.43825794531E+03  0.78098521810E+02 0.  0.
          5    1    3    3  501    0  0.38761871211E+02  0.32333821563E+02 -0.13182165761E+03  0.14123384187E+03  0.47000000000E+01 0. -1.
        -13    1    4    4    0    0  0.11927373157E+03 -0.78538088194E+02 -0.26508535297E+03  0.30110579321E+03  0.00000000000E+00 0.  1.
         14    1    4    4    0    0  0.54284940752E+02 -0.65894272281E+02 -0.68764035357E+02  0.10962391377E+03  0.00000000000E+00 0. -1.
         -5    1    5    5    0  502 -0.15861771579E+02 -0.33796527015E+02  0.59701686566E+02  0.70570407500E+02  0.47000000000E+01 0.  1.
         11    1    6    6    0    0 -0.12324672445E+03  0.96982934537E+02  0.15911615974E+03  0.22341306356E+03  0.00000000000E+00 0. -1.
        -12    1    6    6    0    0 -0.73212047509E+02  0.48912131390E+02  0.19597429096E+03  0.21484488175E+03  0.00000000000E+00 0.  1.
</event>
<event>
12    1  0.1596842E-001  0.2974032E+03  0.7818608E-02  0.1087032E+00
         21   -1    0    0  501  502  0.00000000000E+00  0.00000000000E+00  0.38821518457E+03  0.38821518457E+03  0.00000000000E+00 0. -1.
         21   -1    0    0  502  503 -0.00000000000E+00 -0.00000000000E+00 -0.73533032664E+03  0.73533032664E+03  0.00000000000E+00 0. -1.
         -6    2    1    2    0  503 -0.79626601580E+02 -0.22529468706E+03 -0.64124883464E+03  0.70525933916E+03  0.17056545915E+03 0.  0.
        -24    2    3    3    0    0 -0.28930000268E+02 -0.21240793076E+03 -0.58222498834E+03  0.62625226160E+03  0.85157995236E+02 0.  0.
          6    2    1    2  501    0  0.79626601580E+02  0.22529468706E+03  0.29413369256E+03  0.41828617204E+03  0.17706100905E+03 0.  0.
         24    2    5    5    0    0  0.48996693178E+02  0.76133775492E+02  0.20769256749E+03  0.24312531188E+03  0.88185525881E+02 0.  0.
          5    1    5    5  501    0  0.30629908402E+02  0.14916091157E+03  0.86441125074E+02  0.17516086016E+03  0.47000000000E+01 0. -1.
        -11    1    6    6    0    0  0.30478325023E+02 -0.14006766131E+02  0.68373803922E+02  0.76158353819E+02  0.00000000000E+00 0.  1.
         12    1    6    6    0    0  0.18518368155E+02  0.90140541624E+02  0.13931876357E+03  0.16696695806E+03  0.00000000000E+00 0. -1.
         -5    1    3    3    0  503 -0.50696601312E+02 -0.12886756295E+02 -0.59023846302E+02  0.79007077561E+02  0.47000000000E+01 0.  1.
         11    1    4    4    0    0 -0.17837506377E+02 -0.20760051924E+03 -0.47946721205E+03  0.52278576841E+03  0.00000000000E+00 0. -1.
        -12    1    4    4    0    0 -0.11092493891E+02 -0.48074115272E+01 -0.10275777629E+03  0.10346649319E+03  0.00000000000E+00 0.  1.
</event>
<event>
12    1  0.1596842E-001  0.1774835E+03  0.7818608E-02  0.1170693E+00
         21   -1    0    0  503  502  0.00000000000E+00  0.00000000000E+00  0.47965324380E+03  0.47965324380E+03  0.00000000000E+00 0.  1.
         21   -1    0    0  501  503 -0.00000000000E+00 -0.00000000000E+00 -0.10555799093E+03  0.10555799093E+03  0.00000000000E+00 0.  1.
          6    2    1    2  501    0 -0.33759757006E+02 -0.21103359173E+02  0.63100171776E+01  0.17759563221E+03  0.17296045589E+03 0.  0.
         24    2    3    3    0    0 -0.56659923755E+02 -0.46530833979E+01 -0.54966915724E+02  0.10997920140E+03  0.76433400886E+02 0.  0.
         -6    2    1    2    0  502  0.33759757006E+02  0.21103359173E+02  0.36778523570E+03  0.40761560252E+03  0.17117075352E+03 0.  0.
        -24    2    5    5    0    0  0.75728961447E+02  0.23759366200E+00  0.32883357748E+03  0.34649182670E+03  0.78677393476E+02 0.  0.
          5    1    3    3  501    0  0.22900166749E+02 -0.16450275776E+02  0.61276932901E+02  0.67616430814E+02  0.47000000000E+01 0. -1.
        -11    1    4    4    0    0 -0.20524576422E+02  0.34470531255E+02 -0.12995801402E+02  0.42170684324E+02  0.00000000000E+00 0.  1.
         12    1    4    4    0    0 -0.36135347333E+02 -0.39123614653E+02 -0.41971114322E+02  0.67808517074E+02  0.00000000000E+00 0. -1.
         -5    1    5    5    0  502 -0.41969204441E+02  0.20865765511E+02  0.38951658219E+02  0.61123775814E+02  0.47000000000E+01 0.  1.
         11    1    6    6    0    0  0.41593169570E+02  0.28697566777E+02  0.87021301590E+02  0.10062926525E+03  0.00000000000E+00 0. -1.
        -12    1    6    6    0    0  0.34135791877E+02 -0.28459973115E+02  0.24181227589E+03  0.24586256146E+03  0.00000000000E+00 0.  1.
</event>
<event>
12    1  0.1596842E-001  0.1847061E+03  0.7818608E-02  0.1163710E+00
         21   -1    0    0  503  502  0.00000000000E+00  0.00000000000E+00  0.63523916510E+03  0.63523916510E+03  0.00000000000E+00 0.  1.
         21   -1    0    0  501  503 -0.00000000000E+00 -0.00000000000E+00 -0.73678706528E+02  0.73678706528E+02  0.00000000000E+00 0.  1.
          6    2    1    2  501    0 -0.56689583652E+02  0.29829848359E+02  0.94953937231E+02  0.20768390647E+03  0.17324210246E+03 0.  0.
         24    2    3    3    0    0 -0.28376071220E+02  0.34434047341E+02 -0.16171189086E+02  0.92819911531E+02  0.79769189453E+02 0.  0.
         -6    2    1    2    0  502  0.56689583652E+02 -0.29829848359E+02  0.46660652134E+03  0.50123396516E+03  0.17149435361E+03 0.  0.
        -24    2    5    5    0    0 -0.35553055874E+02 -0.30082003790E+02  0.87902858323E+02  0.11142975467E+03  0.50206881906E+02 0.  0.
          5    1    3    3  501    0 -0.28313512432E+02 -0.46041989813E+01  0.11112512632E+03  0.11486399494E+03  0.47000000000E+01 0. -1.
        -13    1    4    4    0    0 -0.47256106958E+02  0.24071994802E+02  0.14833333315E+02  0.55069305024E+02  0.00000000000E+00 0.  1.
         14    1    4    4    0    0  0.18880035739E+02  0.10362052538E+02 -0.31004522401E+02  0.37750606507E+02  0.00000000000E+00 0. -1.
         -5    1    5    5    0  502  0.92242639525E+02  0.25215543011E+00  0.37870366302E+03  0.38980421049E+03  0.47000000000E+01 0.  1.
         11    1    6    6    0    0 -0.12679846203E+02  0.10471071301E+02  0.65600560093E+01  0.17704693411E+02  0.00000000000E+00 0. -1.
        -12    1    6    6    0    0 -0.22873209671E+02 -0.40553075091E+02  0.81342802313E+02  0.93725061260E+02  0.00000000000E+00 0.  1.
</event>
<event>
12    1  0.1596842E-001  0.1791318E+03  0.7818608E-02  0.1168876E+00
         21   -1    0    0  501  502  0.00000000000E+00  0.00000000000E+00  0.15209693894E+04  0.15209693894E+04  0.00000000000E+00 0.  1.
         21   -1    0    0  502  503 -0.00000000000E+00 -0.00000000000E+00 -0.26329855394E+02  0.26329855394E+02  0.00000000000E+00 0.  1.
         -6    2    1    2    0  503  0.17905129081E+02 -0.42242189505E+02  0.39723074910E+03  0.43536658021E+03  0.17218244658E+03 0.  0.
        -24    2    3    3    0    0 -0.36649622430E+02 -0.68187707098E+02  0.29322041586E+03  0.31499370031E+03  0.85147288447E+02 0.  0.
          6    2    1    2  501    0 -0.17905129081E+02  0.42242189505E+02  0.10974087849E+04  0.11119326646E+04  0.17315661457E+03 0.  0.
         24    2    5    5    0    0 -0.38424147479E+02 -0.15432844517E+01  0.27207468406E+03  0.28516990184E+03  0.76278715075E+02 0.  0.
          5    1    5    5  501    0  0.20519018398E+02  0.43785473956E+02  0.82533410084E+03  0.82676276274E+03  0.47000000000E+01 0. -1.
        -13    1    6    6    0    0 -0.60787072905E+02 -0.63286870537E+01  0.21922208325E+03  0.22758172663E+03  0.00000000000E+00 0.  1.
         14    1    6    6    0    0  0.22362925425E+02  0.47854026021E+01  0.52852600814E+02  0.57588175214E+02  0.00000000000E+00 0. -1.
         -5    1    3    3    0  503  0.54554751511E+02  0.25945517593E+02  0.10401033324E+03  0.12037287990E+03  0.47000000000E+01 0.  1.
         11    1    4    4    0    0 -0.15151811159E+02 -0.41471634373E+02  0.26998523852E+03  0.27357175084E+03  0.00000000000E+00 0. -1.
        -12    1    4    4    0    0 -0.21497811270E+02 -0.26716072725E+02  0.23235177340E+02  0.41421949463E+02  0.00000000000E+00 0.  1.
</event>
<event>
12    1  0.1596842E-001  0.2247830E+03  0.7818608E-02  0.1130519E+00
         21   -1    0    0  501  502  0.00000000000E+00  0.00000000000E+00  0.43412038109E+03  0.43412038109E+03  0.00000000000E+00 0. -1.
         21   -1    0    0  502  503 -0.00000000000E+00 -0.00000000000E+00 -0.25322426404E+03  0.25322426404E+03  0.00000000000E+00 0. -1.
         -6    2    1    2    0  503 -0.33159375672E+02  0.13928269477E+03 -0.16266285799E+03  0.27678383020E+03  0.17219427991E+03 0.  0.
        -24    2    3    3    0    0 -0.20453230576E+02  0.16795698852E+03 -0.15812409299E+03  0.24474710701E+03  0.79183539760E+02 0.  0.
          6    2    1    2  501    0  0.33159375672E+02 -0.13928269477E+03  0.34355897504E+03  0.41056081493E+03  0.17328646852E+03 0.  0.
         24    2    5    5    0    0  0.17358189510E+02 -0.10560070995E+03  0.11932038407E+03  0.18320824894E+03  0.88741713639E+02 0.  0.
          5    1    5    5  501    0  0.15801186163E+02 -0.33681984818E+02  0.22423859096E+03  0.22735256599E+03  0.47000000000E+01 0. -1.
        -13    1    6    6    0    0  0.38695095326E+02 -0.92814567847E+01  0.26946562778E+02  0.48058017935E+02  0.00000000000E+00 0.  1.
         14    1    6    6    0    0 -0.21336905816E+02 -0.96319253169E+02  0.92373821297E+02  0.13515023101E+03  0.00000000000E+00 0. -1.
         -5    1    3    3    0  503 -0.12706145097E+02 -0.28674293749E+02 -0.45387649961E+01  0.32036723193E+02  0.47000000000E+01 0.  1.
         11    1    4    4    0    0  0.13976811223E+02  0.11173592574E+03 -0.63062893059E+02  0.12906276316E+03  0.00000000000E+00 0. -1.
        -12    1    4    4    0    0 -0.34430041799E+02  0.56221062780E+02 -0.95061199935E+02  0.11568434385E+03  0.00000000000E+00 0.  1.
</event>
<event>
12    1  0.1596842E-001  0.1876209E+03  0.7818608E-02  0.1161220E+00
         21   -1    0    0  501  502  0.00000000000E+00  0.00000000000E+00  0.48432405375E+03  0.48432405375E+03  0.00000000000E+00 0. -1.
         21   -1    0    0  502  503 -0.00000000000E+00 -0.00000000000E+00 -0.62715214938E+03  0.62715214938E+03  0.00000000000E+00 0. -1.
         -6    2    1    2    0  503  0.60761929673E+02 -0.46479859465E+02 -0.59448145089E+03  0.62338574705E+03  0.17131609596E+03 0.  0.
        -24    2    3    3    0    0  0.73235425809E+02  0.35246106801E+02 -0.37513190361E+03  0.38892671958E+03  0.62724257353E+02 0.  0.
          6    2    1    2  501    0 -0.60761929673E+02  0.46479859465E+02  0.45165335526E+03  0.48809045608E+03  0.16849080263E+03 0.  0.
         24    2    5    5    0    0 -0.15237307300E+01  0.74196315913E+02  0.19682963997E+03  0.22496580493E+03  0.79751433630E+02 0.  0.
          5    1    5    5  501    0 -0.59238198943E+02 -0.27716456448E+02  0.25482371529E+03  0.26312465115E+03  0.47000000000E+01 0. -1.
        -13    1    6    6    0    0 -0.15921888807E+02 -0.87891618851E+01  0.11830275990E+02  0.21695883016E+02  0.00000000000E+00 0.  1.
         14    1    6    6    0    0  0.14398158077E+02  0.82985477798E+02  0.18499936398E+03  0.20326992191E+03  0.00000000000E+00 0. -1.
         -5    1    3    3    0  503 -0.12473496136E+02 -0.81725966267E+02 -0.21934954729E+03  0.23445902747E+03  0.47000000000E+01 0.  1.
         11    1    4    4    0    0  0.46593913359E+02 -0.41848654225E+01 -0.26278982399E+03  0.26692133196E+03  0.00000000000E+00 0. -1.
        -12    1    4    4    0    0  0.26641512450E+02  0.39430972224E+02 -0.11234207961E+03  0.12200538762E+03  0.00000000000E+00 0.  1.
</event>
<event>
12    1  0.1596842E-001  0.1992508E+03  0.7818608E-02  0.1150382E+00
         21   -1    0    0  501  502  0.00000000000E+00  0.00000000000E+00  0.60166217374E+03  0.60166217374E+03  0.00000000000E+00 0. -1.
         21   -1    0    0  502  503 -0.00000000000E+00 -0.00000000000E+00 -0.49821934253E+03  0.49821934253E+03  0.00000000000E+00 0. -1.
         -6    2    1    2    0  503  0.66501929672E+02  0.74619444193E+02 -0.46051620696E+03  0.50177290187E+03  0.17236676035E+03 0.  0.
        -24    2    3    3    0    0  0.21168065196E+02 -0.24215101231E+02 -0.25608888536E+03  0.27017832841E+03  0.79877117034E+02 0.  0.
          6    2    1    2  501    0 -0.66501929672E+02 -0.74619444193E+02  0.56395903817E+03  0.59810861440E+03  0.17231816440E+03 0.  0.
         24    2    5    5    0    0 -0.11842831109E+02 -0.99384901469E+02  0.46472225408E+03  0.48204408818E+03  0.79888160728E+02 0.  0.
          5    1    5    5  501    0 -0.54659098563E+02  0.24765457276E+02  0.99236784095E+02  0.11606452622E+03  0.47000000000E+01 0. -1.
        -13    1    6    6    0    0  0.17441922553E+02 -0.86713709053E+02  0.25491474607E+03  0.26982404594E+03  0.00000000000E+00 0.  1.
         14    1    6    6    0    0 -0.29284753662E+02 -0.12671192416E+02  0.20980750800E+03  0.21222004224E+03  0.00000000000E+00 0. -1.
         -5    1    3    3    0  503  0.45333864477E+02  0.98834545425E+02 -0.20442732160E+03  0.23159457345E+03  0.47000000000E+01 0.  1.
         11    1    4    4    0    0 -0.22054639091E+02 -0.51024007169E+01 -0.17392711290E+03  0.17539407686E+03  0.00000000000E+00 0. -1.
        -12    1    4    4    0    0  0.43222704287E+02 -0.19112700515E+02 -0.82161772467E+02  0.94784251549E+02  0.00000000000E+00 0.  1.
</event>
<event>
12    1  0.1596842E-001  0.2662147E+03  0.7818608E-02  0.1103580E+00
         21   -1    0    0  501  502  0.00000000000E+00  0.00000000000E+00  0.26791609929E+04  0.26791609929E+04  0.00000000000E+00 0. -1.
         21   -1    0    0  502  503 -0.00000000000E+00 -0.00000000000E+00 -0.28328503937E+02  0.28328503937E+02  0.00000000000E+00 0. -1.
         -6    2    1    2    0  503 -0.14102350350E+03  0.14583001307E+03  0.97173069154E+03  0.10075370101E+04  0.17238407288E+03 0.  0.
        -24    2    3    3    0    0 -0.27952292122E+02  0.35687179302E+02  0.19959581679E+03  0.21941842925E+03  0.79063592205E+02 0.  0.
          6    2    1    2  501    0  0.14102350350E+03 -0.14583001307E+03  0.16791017974E+04  0.16999524868E+04  0.17117707150E+03 0.  0.
         24    2    5    5    0    0  0.67144018529E+02 -0.18324228537E+02  0.96231896348E+03  0.96816315610E+03  0.80237228234E+02 0.  0.
          5    1    5    5  501    0  0.73879484975E+02 -0.12750578454E+03  0.71678283397E+03  0.73178933065E+03  0.47000000000E+01 0. -1.
        -11    1    6    6    0    0  0.12552159932E+02 -0.10550159393E+01  0.17241296944E+02  0.21352566542E+02  0.00000000000E+00 0.  1.
         12    1    6    6    0    0  0.54591858597E+02 -0.17269212598E+02  0.94507766653E+03  0.94681058956E+03  0.00000000000E+00 0. -1.
         -5    1    3    3    0  503 -0.11307121138E+03  0.11014283377E+03  0.77213487475E+03  0.78811858085E+03  0.47000000000E+01 0.  1.
         11    1    4    4    0    0 -0.46744757543E+02  0.31179556312E+02  0.18941859736E+03  0.19757692708E+03  0.00000000000E+00 0. -1.
        -12    1    4    4    0    0  0.18792465421E+02  0.45076229907E+01  0.10177219433E+02  0.21841502169E+02  0.00000000000E+00 0.  1.
</event>
<event>
12    1  0.1596842E-001  0.2080268E+03  0.7818608E-02  0.1143181E+00
         21   -1    0    0  501  502  0.00000000000E+00  0.00000000000E+00  0.17196203847E+03  0.17196203847E+03  0.00000000000E+00 0. -1.
         21   -1    0    0  502  503 -0.00000000000E+00 -0.00000000000E+00 -0.27275970704E+03  0.27275970704E+03  0.00000000000E+00 0. -1.
         -6    2    1    2    0  503  0.67482949828E+02  0.96858148468E+02  0.11857853845E+02  0.20814956265E+03  0.17102684670E+03 0.  0.
        -24    2    3    3    0    0  0.20560874254E+02  0.93439837417E+02 -0.50891191608E+02  0.12958176561E+03  0.71047644784E+02 0.  0.
          6    2    1    2  501    0 -0.67482949828E+02 -0.96858148468E+02 -0.11265552242E+03  0.23657218286E+03  0.17128829945E+03 0.  0.
         24    2    5    5    0    0 -0.41042884460E+02 -0.20096925390E+02 -0.12394853221E+03  0.15446868418E+03  0.80055799159E+02 0.  0.
          5    1    5    5  501    0 -0.26440065367E+02 -0.76761223078E+02  0.11293009799E+02  0.82103498680E+02  0.47000000000E+01 0. -1.
        -13    1    6    6    0    0 -0.52455114057E+02  0.15056955567E+02 -0.64761282126E+02  0.84689282464E+02  0.00000000000E+00 0.  1.
         14    1    6    6    0    0  0.11412229597E+02 -0.35153880957E+02 -0.59187250089E+02  0.69779401716E+02  0.00000000000E+00 0. -1.
         -5    1    3    3    0  503  0.46922075574E+02  0.34183110516E+01  0.62749045453E+02  0.78567797041E+02  0.47000000000E+01 0.  1.
         11    1    4    4    0    0 -0.60667950127E+01  0.94528314926E-01 -0.29586622876E+02  0.30202370611E+02  0.00000000000E+00 0. -1.
        -12    1    4    4    0    0  0.26627669267E+02  0.93345309102E+02 -0.21304568732E+02  0.99379395001E+02  0.00000000000E+00 0.  1.
</event>
<event>
12    1  0.1596842E-001  0.2852977E+03  0.7818608E-02  0.1092979E+00
         21   -1    0    0  501  502  0.00000000000E+00  0.00000000000E+00  0.87707565484E+03  0.87707565484E+03  0.00000000000E+00 0.  1.
         21   -1    0    0  502  503 -0.00000000000E+00 -0.00000000000E+00 -0.99732962473E+02  0.99732962473E+02  0.00000000000E+00 0. -1.
         -6    2    1    2    0  503 -0.20476145712E+03  0.10005551698E+03  0.25590243696E+03  0.38242260407E+03  0.16977228885E+03 0.  0.
        -24    2    3    3    0    0 -0.11693730821E+03  0.91737973800E+02  0.23889279773E+03  0.29245771934E+03  0.79822045254E+02 0.  0.
          6    2    1    2  501    0  0.20476145712E+03 -0.10005551698E+03  0.52144025541E+03  0.59438601324E+03  0.17162876209E+03 0.  0.
         24    2    5    5    0    0  0.17250031291E+03 -0.93343244848E+02  0.51946643660E+03  0.56104201852E+03  0.80333358415E+02 0.  0.
          5    1    5    5  501    0  0.32261144217E+02 -0.67122721319E+01  0.19738188033E+01  0.33343994722E+02  0.47000000000E+01 0. -1.
        -13    1    6    6    0    0  0.12190922695E+03 -0.21190025930E+02  0.29528016587E+03  0.32015816899E+03  0.00000000000E+00 0.  1.
         14    1    6    6    0    0  0.50591085955E+02 -0.72153218918E+02  0.22418627073E+03  0.24088384953E+03  0.00000000000E+00 0. -1.
         -5    1    3    3    0  503 -0.87824148917E+02  0.83175431800E+01  0.17009639230E+02  0.89964884729E+02  0.47000000000E+01 0.  1.
         13    1    4    4    0    0  0.58959463470E+01  0.24578322791E+02  0.18348911942E+02  0.31233614968E+02  0.00000000000E+00 0. -1.
        -14    1    4    4    0    0 -0.12283325455E+03  0.67159651009E+02  0.22054388579E+03  0.26122410438E+03  0.00000000000E+00 0.  1.
</event>
<event>
12    1  0.1596842E-001  0.2543354E+03  0.7818608E-02  0.1111537E+00
         21   -1    0    0  501  502  0.00000000000E+00  0.00000000000E+00  0.63984583476E+03  0.63984583476E+03  0.00000000000E+00 0.  1.
         21   -1    0    0  502  503 -0.00000000000E+00 -0.00000000000E+00 -0.11300815099E+03  0.11300815099E+03  0.00000000000E+00 0.  1.
         -6    2    1    2    0  503 -0.97170992972E+02 -0.13986840408E+03  0.40001116854E+03  0.47402051558E+03  0.18889452585E+03 0.  0.
        -24    2    3    3    0    0 -0.32137695675E+02  0.14984408349E+01  0.22176182962E+03  0.23735866520E+03  0.78267171026E+02 0.  0.
          6    2    1    2  501    0  0.97170992972E+02  0.13986840408E+03  0.12682651523E+03  0.27883347018E+03  0.18071460038E+03 0.  0.
         24    2    5    5    0    0  0.27521669742E+01  0.10129045515E+03  0.12338775703E+03  0.17667140332E+03  0.75636733409E+02 0.  0.
          5    1    5    5  501    0  0.94418825998E+02  0.38577948926E+02  0.34387582076E+01  0.10216206686E+03  0.47000000000E+01 0. -1.
        -13    1    6    6    0    0  0.38892447549E+02  0.48756686248E+02  0.54817710732E+02  0.83035042844E+02  0.00000000000E+00 0.  1.
         14    1    6    6    0    0 -0.36140280575E+02  0.52533768905E+02  0.68570046294E+02  0.93636360481E+02  0.00000000000E+00 0. -1.
         -5    1    3    3    0  503 -0.65033297297E+02 -0.14136684491E+03  0.17824933892E+03  0.23666185038E+03  0.47000000000E+01 0.  1.
         11    1    4    4    0    0 -0.57764321157E+02  0.23240926629E+01  0.13425648675E+03  0.14617428789E+03  0.00000000000E+00 0. -1.
        -12    1    4    4    0    0  0.25626625483E+02 -0.82565182795E+00  0.87505342867E+02  0.91184377307E+02  0.00000000000E+00 0.  1.
</event>
<event>
12    1  0.1596842E-001  0.2148335E+03  0.7818608E-02  0.1137983E+00
         21   -1    0    0  503  502  0.00000000000E+00  0.00000000000E+00  0.18660701085E+03  0.18660701085E+03  0.00000000000E+00 0.  1.
         21   -1    0    0  501  503 -0.00000000000E+00 -0.00000000000E+00 -0.33805475716E+03  0.33805475716E+03  0.00000000000E+00 0.  1.
          6    2    1    2  501    0  0.99867117570E+02 -0.81268490557E+02 -0.21233624417E+03  0.30136633113E+03  0.17075413969E+03 0.  0.
         24    2    3    3    0    0  0.89879098477E+02 -0.55656468359E+02 -0.61682257512E+02  0.14815259185E+03  0.83478109516E+02 0.  0.
         -6    2    1    2    0  502 -0.99867117570E+02  0.81268490557E+02  0.60888497864E+02  0.22329543688E+03  0.17197509770E+03 0.  0.
        -24    2    5    5    0    0 -0.23496015973E+02 -0.17157290666E+02  0.58573950201E+02  0.98605314178E+02  0.73794748813E+02 0.  0.
          5    1    3    3  501    0  0.99880190930E+01 -0.25612022198E+02 -0.15065398666E+03  0.15321373927E+03  0.47000000000E+01 0. -1.
        -13    1    4    4    0    0  0.46725807900E+02  0.72105952058E+00 -0.61392261257E+02  0.77154590226E+02  0.00000000000E+00 0.  1.
         14    1    4    4    0    0  0.43153290577E+02 -0.56377527880E+02 -0.28999625496E+00  0.70998001629E+02  0.00000000000E+00 0. -1.
         -5    1    5    5    0  502 -0.76371101597E+02  0.98425781224E+02  0.23145476633E+01  0.12469012270E+03  0.47000000000E+01 0.  1.
         11    1    6    6    0    0  0.11584025887E+02  0.70746262195E+01 -0.10685417923E+02  0.17274783590E+02  0.00000000000E+00 0. -1.
        -12    1    6    6    0    0 -0.35080041859E+02 -0.24231916886E+02  0.69259368124E+02  0.81330530588E+02  0.00000000000E+00 0.  1.
</event>
<event>
12    1  0.1596842E-001  0.2195879E+03  0.7818608E-02  0.1134218E+00
         21   -1    0    0  503  502  0.00000000000E+00  0.00000000000E+00  0.30616352105E+03  0.30616352105E+03  0.00000000000E+00 0. -1.
         21   -1    0    0  501  503 -0.00000000000E+00 -0.00000000000E+00 -0.17055317371E+03  0.17055317371E+03  0.00000000000E+00 0. -1.
          6    2    1    2  501    0  0.79617510134E+02 -0.11026085138E+03  0.15644027441E+01  0.21944801295E+03  0.17221666518E+03 0.  0.
         24    2    3    3    0    0  0.42153657057E+02  0.43441911739E+01 -0.30999637838E+02  0.94466563106E+02  0.78531211622E+02 0.  0.
         -6    2    1    2    0  502 -0.79617510134E+02  0.11026085138E+03  0.13404594459E+03  0.25726868181E+03  0.17240201887E+03 0.  0.
        -24    2    5    5    0    0 -0.35724384802E+02  0.11232740394E+03  0.32978636495E+02  0.14696198275E+03  0.81342218819E+02 0.  0.
          5    1    3    3  501    0  0.37463853078E+02 -0.11460504256E+03  0.32564040582E+02  0.12498144985E+03  0.47000000000E+01 0. -1.
        -11    1    4    4    0    0 -0.92638985486E+01 -0.25868484185E+02 -0.49722832880E+00  0.27481730774E+02  0.00000000000E+00 0.  1.
         12    1    4    4    0    0  0.51417555605E+02  0.30212675358E+02 -0.30502409509E+02  0.66984832332E+02  0.00000000000E+00 0. -1.
         -5    1    5    5    0  502 -0.43893125332E+02 -0.20665525602E+01  0.10106730810E+03  0.11030669906E+03  0.47000000000E+01 0.  1.
         11    1    6    6    0    0 -0.55059642535E+02  0.10671099343E+03  0.17037594342E+02  0.12128099594E+03  0.00000000000E+00 0. -1.
        -12    1    6    6    0    0  0.19335257732E+02  0.56164105126E+01  0.15941042153E+02  0.25680986811E+02  0.00000000000E+00 0.  1.
</event>
<event>
12    1  0.1596842E-001  0.1795086E+03  0.7818608E-02  0.1168446E+00
         21   -1    0    0  501  502  0.00000000000E+00  0.00000000000E+00  0.17918893470E+03  0.17918893470E+03  0.00000000000E+00 0. -1.
         21   -1    0    0  502  503 -0.00000000000E+00 -0.00000000000E+00 -0.25800803026E+03  0.25800803026E+03  0.00000000000E+00 0. -1.
         -6    2    1    2    0  503 -0.67371976537E+00 -0.48634365489E+02 -0.16031675447E+03  0.24067570243E+03  0.17279345061E+03 0.  0.
        -24    2    3    3    0    0  0.16683358939E+02 -0.14384234332E+02 -0.17906745322E+03  0.19768711825E+03  0.80807198060E+02 0.  0.
          6    2    1    2  501    0  0.67371976537E+00  0.48634365489E+02  0.81497658905E+02  0.19652126253E+03  0.17208423174E+03 0.  0.
         24    2    5    5    0    0  0.11387606454E+02  0.97403334559E+02  0.49072102286E+02  0.13679935337E+03  0.81785724272E+02 0.  0.
          5    1    5    5  501    0 -0.10713886689E+02 -0.48768969070E+02  0.32425556619E+02  0.59721909164E+02  0.47000000000E+01 0. -1.
        -13    1    6    6    0    0  0.26031210164E+02  0.54368934853E+02 -0.11195697834E+02  0.61310265288E+02  0.00000000000E+00 0.  1.
         14    1    6    6    0    0 -0.14643603709E+02  0.43034399706E+02  0.60267800120E+02  0.75489088079E+02  0.00000000000E+00 0. -1.
         -5    1    3    3    0  503 -0.17357078705E+02 -0.34250131157E+02  0.18750698754E+02  0.42988584173E+02  0.47000000000E+01 0.  1.
         13    1    4    4    0    0  0.41697129446E+02 -0.18294952507E+02 -0.15896904730E+03  0.16536176672E+03  0.00000000000E+00 0. -1.
        -14    1    4    4    0    0 -0.25013770507E+02  0.39107181755E+01 -0.20098405917E+02  0.32325351537E+02  0.00000000000E+00 0.  1.
</event>
<event>
12    1  0.1596842E-001  0.1781083E+03  0.7818608E-02  0.1170527E+00
         21   -1    0    0  501  502  0.00000000000E+00  0.00000000000E+00  0.11110130440E+03  0.11110130440E+03  0.00000000000E+00 0. -1.
         21   -1    0    0  502  503 -0.00000000000E+00 -0.00000000000E+00 -0.43685868210E+03  0.43685868210E+03  0.00000000000E+00 0. -1.
         -6    2    1    2    0  503 -0.47428126904E+02  0.79600429478E+01 -0.32606772637E+03  0.36985145547E+03  0.16780091605E+03 0.  0.
        -24    2    3    3    0    0 -0.37773897700E+02 -0.24353668803E+00 -0.33930384994E+03  0.35093617520E+03  0.81253737279E+02 0.  0.
          6    2    1    2  501    0  0.47428126904E+02 -0.79600429478E+01  0.31034867235E+00  0.17810853104E+03  0.17149274914E+03 0.  0.
         24    2    5    5    0    0 -0.14866674209E+02 -0.91455631726E+01  0.49026991117E+02  0.98878177288E+02  0.84074899690E+02 0.  0.
          5    1    5    5  501    0  0.62294801113E+02  0.11855202248E+01 -0.48716642445E+02  0.79230353748E+02  0.47000000000E+01 0. -1.
        -11    1    6    6    0    0 -0.28305515095E+01 -0.24188998369E+02 -0.17258775225E+02  0.29849371622E+02  0.00000000000E+00 0.  1.
         12    1    6    6    0    0 -0.12036122699E+02  0.15043435196E+02  0.66285766342E+02  0.69028805666E+02  0.00000000000E+00 0. -1.
         -5    1    3    3    0  503 -0.96542292038E+01  0.82035796358E+01  0.13236123572E+02  0.18915280267E+02  0.47000000000E+01 0.  1.
         13    1    4    4    0    0  0.24677638942E+02  0.48708096010E+01 -0.13175937617E+03  0.13413889763E+03  0.00000000000E+00 0. -1.
        -14    1    4    4    0    0 -0.62451536642E+02 -0.51143462891E+01 -0.20754447377E+03  0.21679727756E+03  0.00000000000E+00 0.  1.
</event>
<event>
12    1  0.1596842E-001  0.2561898E+03  0.7818608E-02  0.1109642E+00
         21   -1    0    0  503  502  0.00000000000E+00  0.00000000000E+00  0.64086180622E+02  0.64086180622E+02  0.00000000000E+00 0.  1.
         21   -1    0    0  501  503 -0.00000000000E+00 -0.00000000000E+00 -0.21983081487E+04  0.21983081487E+04  0.00000000000E+00 0. -1.
          6    2    1    2  501    0 -0.18915212791E+03 -0.16808448979E+02 -0.18943636783E+04  0.19114452963E+04  0.17014206939E+03 0.  0.
         24    2    3    3    0    0 -0.74309781477E+02  0.35866888173E+02 -0.12094374879E+04  0.12149473193E+04  0.80929440377E+02 0.  0.
         -6    2    1    2    0  502  0.18915212791E+03  0.16808448979E+02 -0.23985828980E+03  0.35094903301E+03  0.17196561613E+03 0.  0.
        -24    2    5    5    0    0  0.30826290365E+02  0.39999016308E+02 -0.86225949929E+02  0.12907100547E+03  0.81695951727E+02 0.  0.
          5    1    3    3  501    0 -0.11484234644E+03 -0.52675337152E+02 -0.68492619042E+03  0.69649797702E+03  0.47000000000E+01 0. -1.
        -13    1    4    4    0    0 -0.13247971052E+02 -0.22677520868E+02 -0.16365163268E+03  0.16574569548E+03  0.00000000000E+00 0.  1.
         14    1    4    4    0    0 -0.61061810425E+02  0.58544409041E+02 -0.10457858552E+04  0.10492016238E+04  0.00000000000E+00 0. -1.
         -5    1    5    5    0  502  0.15832583755E+03 -0.23190567330E+02 -0.15363233987E+03  0.22187802754E+03  0.47000000000E+01 0.  1.
         13    1    6    6    0    0  0.27376670923E+02 -0.14334493681E+02 -0.50256133242E+01  0.31308411157E+02  0.00000000000E+00 0. -1.
        -14    1    6    6    0    0  0.34496194422E+01  0.54333509990E+02 -0.81200336604E+02  0.97762594313E+02  0.00000000000E+00 0.  1.
</event>
<event>
12    1  0.1596842E-001  0.1842081E+03  0.7818608E-02  0.1164659E+00
         21   -1    0    0  503  502  0.00000000000E+00  0.00000000000E+00  0.68829322013E+02  0.68829322013E+02  0.00000000000E+00 0.  1.
         21   -1    0    0  501  503 -0.00000000000E+00 -0.00000000000E+00 -0.85448203935E+03  0.85448203935E+03  0.00000000000E+00 0.  1.
          6    2    1    2  501    0 -0.45456116823E+02 -0.46931325351E+02 -0.69487864779E+03  0.71795176424E+03  0.16831397078E+03 0.  0.
         24    2    3    3    0    0 -0.47382011851E+02 -0.28597793093E+02 -0.69161344605E+03  0.69864945818E+03  0.81969615394E+02 0.  0.
         -6    2    1    2    0  502  0.45456116823E+02  0.46931325351E+02 -0.90774069545E+02  0.20535959713E+03  0.17223189186E+03 0.  0.
        -24    2    5    5    0    0 -0.13095186990E+02  0.11345508775E+01 -0.10193557597E+03  0.13004513002E+03  0.79674983926E+02 0.  0.
          5    1    3    3  501    0  0.19258950284E+01 -0.18333532258E+02 -0.32652017474E+01  0.19302306059E+02  0.47000000000E+01 0. -1.
        -11    1    4    4    0    0  0.16013074863E+02 -0.28654277840E+02 -0.31868220518E+03  0.32036827887E+03  0.00000000000E+00 0.  1.
         12    1    4    4    0    0 -0.63395086714E+02  0.56484746737E-01 -0.37293124086E+03  0.37828117931E+03  0.00000000000E+00 0. -1.
         -5    1    5    5    0  502  0.58551303813E+02  0.45796774474E+02  0.11161506429E+02  0.75314467111E+02  0.47000000000E+01 0.  1.
         13    1    6    6    0    0  0.19369824502E+02  0.30789791663E+02 -0.52677824634E+02  0.64016830444E+02  0.00000000000E+00 0. -1.
        -14    1    6    6    0    0 -0.32465011492E+02 -0.29655240786E+02 -0.49257751340E+02  0.66028299572E+02  0.00000000000E+00 0.  1.
</event>
<event>
12    1  0.1596842E-001  0.2530465E+03  0.7818608E-02  0.1111482E+00
         21   -1    0    0  503  502  0.00000000000E+00  0.00000000000E+00  0.91417807015E+03  0.91417807015E+03  0.00000000000E+00 0. -1.
         21   -1    0    0  501  503 -0.00000000000E+00 -0.00000000000E+00 -0.71587565301E+02  0.71587565301E+02  0.00000000000E+00 0. -1.
          6    2    1    2  501    0 -0.62313948917E+02 -0.17523767568E+03  0.34491919023E+03  0.42745632108E+03  0.17075827195E+03 0.  0.
         24    2    3    3    0    0  0.33121867102E+01 -0.35981559336E+02  0.19499820870E+03  0.21252040896E+03  0.76387038411E+02 0.  0.
         -6    2    1    2    0  502  0.62313948917E+02  0.17523767568E+03  0.49767131461E+03  0.55830931436E+03  0.17158462026E+03 0.  0.
        -24    2    5    5    0    0  0.56661810427E+02  0.19576032207E+03  0.48692233363E+03  0.53400383603E+03  0.80833615883E+02 0.  0.
          5    1    3    3  501    0 -0.65626135627E+02 -0.13925611634E+03  0.14992098154E+03  0.21493591212E+03  0.47000000000E+01 0. -1.
        -13    1    4    4    0    0  0.24786715776E+02 -0.46061784053E+02  0.17081425885E+03  0.17864372437E+03  0.00000000000E+00 0.  1.
         14    1    4    4    0    0 -0.21474529066E+02  0.10080224717E+02  0.24183949847E+02  0.33876684595E+02  0.00000000000E+00 0. -1.
         -5    1    5    5    0  502  0.56521384907E+01 -0.20522646394E+02  0.10748980987E+02  0.24305478329E+02  0.47000000000E+01 0.  1.
         11    1    6    6    0    0 -0.41930479014E+01  0.76403533612E+02  0.25426136938E+03  0.26552575309E+03  0.00000000000E+00 0. -1.
        -12    1    6    6    0    0  0.60854858328E+02  0.11935678846E+03  0.23266096425E+03  0.26847808294E+03  0.00000000000E+00 0.  1.
</event>
<event>
12    1  0.1596842E-001  0.2054348E+03  0.7818608E-02  0.1146003E+00
         21   -1    0    0  501  502  0.00000000000E+00  0.00000000000E+00  0.65022397056E+03  0.65022397056E+03  0.00000000000E+00 0. -1.
         21   -1    0    0  502  503 -0.00000000000E+00 -0.00000000000E+00 -0.82673896196E+02  0.82673896196E+02  0.00000000000E+00 0. -1.
         -6    2    1    2    0  503  0.11098236318E+03  0.21932288184E+02  0.46120274730E+03  0.50488752493E+03  0.17147981955E+03 0.  0.
        -24    2    3    3    0    0  0.86156373755E+02 -0.29630950942E+02  0.17363855104E+03  0.21164640512E+03  0.79642579059E+02 0.  0.
          6    2    1    2  501    0 -0.11098236318E+03 -0.21932288184E+02  0.10634732707E+03  0.22801034183E+03  0.16697560242E+03 0.  0.
         24    2    5    5    0    0 -0.11194746637E+03  0.36987151754E+02  0.80773047001E+02  0.16360098205E+03  0.79628585210E+02 0.  0.
          5    1    5    5  501    0  0.96510319089E+00 -0.58919439938E+02  0.25574280069E+02  0.64409359784E+02  0.47000000000E+01 0. -1.
        -13    1    6    6    0    0 -0.26250176261E+01  0.30802689703E+02  0.73824716341E+01  0.31783601085E+02  0.00000000000E+00 0.  1.
         14    1    6    6    0    0 -0.10932244875E+03  0.61844620503E+01  0.73390575367E+02  0.13181738096E+03  0.00000000000E+00 0. -1.
         -5    1    3    3    0  503  0.24825989427E+02  0.51563239126E+02  0.28756419625E+03  0.29324111981E+03  0.47000000000E+01 0.  1.
         13    1    4    4    0    0  0.33516288559E+02 -0.22267647967E+01  0.13885018223E+03  0.14285542757E+03  0.00000000000E+00 0. -1.
        -14    1    4    4    0    0  0.52640085197E+02 -0.27404186145E+02  0.34788368813E+02  0.68790977551E+02  0.00000000000E+00 0.  1.
</event>
<event>
12    1  0.1596842E-001  0.1735958E+03  0.7818608E-02  0.1174407E+00
         21   -1    0    0  503  502  0.00000000000E+00  0.00000000000E+00  0.26667917829E+03  0.26667917829E+03  0.00000000000E+00 0.  1.
         21   -1    0    0  501  503 -0.00000000000E+00 -0.00000000000E+00 -0.11261379023E+03  0.11261379023E+03  0.00000000000E+00 0.  1.
          6    2    1    2  501    0 -0.26999741920E+02  0.12265895557E+01  0.86107573452E+02  0.19286933876E+03  0.17045109868E+03 0.  0.
         24    2    3    3    0    0 -0.72029430584E+02 -0.39018558114E+02  0.40071328417E+02  0.11678536785E+03  0.72954945246E+02 0.  0.
         -6    2    1    2    0  502  0.26999741920E+02 -0.12265895557E+01  0.67957814612E+02  0.18642362976E+03  0.17147890418E+03 0.  0.
        -24    2    5    5    0    0  0.47055564227E+01 -0.21804909564E+02 -0.26644734967E+02  0.86963937679E+02  0.79719434348E+02 0.  0.
          5    1    3    3  501    0  0.45029688664E+02  0.40245147670E+02  0.46036245034E+02  0.76083970907E+02  0.47000000000E+01 0. -1.
        -11    1    4    4    0    0 -0.17903789055E+02 -0.20701958278E+02  0.51677173527E+02  0.58477747929E+02  0.00000000000E+00 0.  1.
         12    1    4    4    0    0 -0.54125641529E+02 -0.18316599836E+02 -0.11605845110E+02  0.58307619924E+02  0.00000000000E+00 0. -1.
         -5    1    5    5    0  502  0.22294185497E+02  0.20578320008E+02  0.94602549579E+02  0.99459692078E+02  0.47000000000E+01 0.  1.
         11    1    6    6    0    0 -0.17846999722E+02  0.20862021213E+02 -0.27274378175E+02  0.38699238144E+02  0.00000000000E+00 0. -1.
        -12    1    6    6    0    0  0.22552556144E+02 -0.42666930777E+02  0.62964320809E+00  0.48264699534E+02  0.00000000000E+00 0.  1.
</event>
<event>
12    1  0.1596842E-001  0.1993455E+03  0.7818608E-02  0.1152477E+00
         21   -1    0    0  501  502  0.00000000000E+00  0.00000000000E+00  0.21340684440E+03  0.21340684440E+03  0.00000000000E+00 0. -1.
         21   -1    0    0  502  503 -0.00000000000E+00 -0.00000000000E+00 -0.22074745020E+03  0.22074745020E+03  0.00000000000E+00 0.  1.
         -6    2    1    2    0  503  0.83577452121E+02  0.63535033547E+02  0.92910971156E+02  0.21993428732E+03  0.16946017581E+03 0.  0.
        -24    2    3    3    0    0  0.52028200630E+02 -0.12624631017E+01  0.11074694585E+03  0.14554152669E+03  0.78796716310E+02 0.  0.
          6    2    1    2  501    0 -0.83577452121E+02 -0.63535033547E+02 -0.10025157696E+03  0.21422000728E+03  0.15753711260E+03 0.  0.
         24    2    5    5    0    0 -0.41839698367E+02 -0.31273152504E+02 -0.12289070046E+03  0.15662236002E+03  0.81852727341E+02 0.  0.
          5    1    5    5  501    0 -0.41737753755E+02 -0.32261881043E+02  0.22639123497E+02  0.57597647258E+02  0.47000000000E+01 0. -1.
        -11    1    6    6    0    0 -0.43970418759E+02 -0.55443062983E+02 -0.76108351782E+02  0.10392214475E+03  0.00000000000E+00 0.  1.
         12    1    6    6    0    0  0.21307203920E+01  0.24169910479E+02 -0.46782348678E+02  0.52700215273E+02  0.00000000000E+00 0. -1.
         -5    1    3    3    0  503  0.31549251492E+02  0.64797496649E+02 -0.17835974693E+02  0.74392760635E+02  0.47000000000E+01 0.  1.
         13    1    4    4    0    0  0.50200435071E+02  0.37317013076E+01  0.19256117613E+02  0.53896264634E+02  0.00000000000E+00 0. -1.
        -14    1    4    4    0    0  0.18277655583E+01 -0.49941644092E+01  0.91490828236E+02  0.91645262051E+02  0.00000000000E+00 0.  1.
</event>
<event>
12    1  0.1596842E-001  0.2294318E+03  0.7818608E-02  0.1127055E+00
         21   -1    0    0  503  502  0.00000000000E+00  0.00000000000E+00  0.31118885339E+03  0.31118885339E+03  0.00000000000E+00 0.  1.
         21   -1    0    0  501  503 -0.00000000000E+00 -0.00000000000E+00 -0.20922672975E+03  0.20922672975E+03  0.00000000000E+00 0. -1.
          6    2    1    2  501    0  0.13699687612E+03 -0.64954227566E+02 -0.62990362735E+02  0.23784118315E+03  0.17208558005E+03 0.  0.
         24    2    3    3    0    0  0.44483717448E+02 -0.80430901176E+01  0.27621605889E+02  0.96313161363E+02  0.80434939692E+02 0.  0.
         -6    2    1    2    0  502 -0.13699687612E+03  0.64954227566E+02  0.16495248637E+03  0.28257440000E+03  0.17219690192E+03 0.  0.
        -24    2    5    5    0    0 -0.49611758872E+02  0.46337984572E+02  0.16116525094E+02  0.10891681569E+03  0.83633694921E+02 0.  0.
          5    1    3    3  501    0  0.92513158668E+02 -0.56911137448E+02 -0.90611968624E+02  0.14152802178E+03  0.47000000000E+01 0. -1.
        -11    1    4    4    0    0 -0.28836703577E+01  0.30780697472E+02  0.11464573770E+02  0.32972766692E+02  0.00000000000E+00 0.  1.
         12    1    4    4    0    0  0.47367387805E+02 -0.38823787589E+02  0.16157032119E+02  0.63340394672E+02  0.00000000000E+00 0. -1.
         -5    1    5    5    0  502 -0.87385117244E+02  0.18616242994E+02  0.14883596128E+03  0.17365758431E+03  0.47000000000E+01 0.  1.
         13    1    6    6    0    0 -0.66884037719E+02  0.54540051685E+02  0.42371892429E+01  0.86406281671E+02  0.00000000000E+00 0. -1.
        -14    1    6    6    0    0  0.17272278848E+02 -0.82020671132E+01  0.11879335851E+02  0.22510534018E+02  0.00000000000E+00 0.  1.
</event>
<event>
12    1  0.1596842E-001  0.1908745E+03  0.7818608E-02  0.1157783E+00
         21   -1    0    0  503  502  0.00000000000E+00  0.00000000000E+00  0.60206755787E+03  0.60206755787E+03  0.00000000000E+00 0.  1.
         21   -1    0    0  501  503 -0.00000000000E+00 -0.00000000000E+00 -0.17713852548E+03  0.17713852548E+03  0.00000000000E+00 0.  1.
          6    2    1    2  501    0 -0.55509815980E+02 -0.60064355547E+02 -0.10396209092E+03  0.21692598697E+03  0.17192934886E+03 0.  0.
         24    2    3    3    0    0 -0.22490435711E+01  0.25612606230E+02 -0.75329764022E+02  0.11195383924E+03  0.78727536333E+02 0.  0.
         -6    2    1    2    0  502  0.55509815980E+02  0.60064355547E+02  0.52889112331E+03  0.56228009638E+03  0.17246454707E+03 0.  0.
        -24    2    5    5    0    0 -0.31151823088E+02  0.55963199437E+02  0.28457349060E+03  0.30297283691E+03  0.81903312358E+02 0.  0.
          5    1    3    3  501    0 -0.53260772409E+02 -0.85676961777E+02 -0.28632326896E+02  0.10497214774E+03  0.47000000000E+01 0. -1.
        -13    1    4    4    0    0 -0.34176995578E+02  0.85678649797E+01 -0.65619925455E+02  0.74481205373E+02  0.00000000000E+00 0.  1.
         14    1    4    4    0    0  0.31927952007E+02  0.17044741250E+02 -0.97098385674E+01  0.37472633863E+02  0.00000000000E+00 0. -1.
         -5    1    5    5    0  502  0.86661639068E+02  0.41011561100E+01  0.24431763270E+03  0.25930725948E+03  0.47000000000E+01 0.  1.
         11    1    6    6    0    0 -0.40470020609E+02  0.59331304498E+02  0.28411738836E+03  0.29305411894E+03  0.00000000000E+00 0. -1.
        -12    1    6    6    0    0  0.93181975210E+01 -0.33681050616E+01  0.45610224418E+00  0.99187179617E+01  0.00000000000E+00 0.  1.
</event>
<event>
12    1  0.1596842E-001  0.1921361E+03  0.7818608E-02  0.1156582E+00
         21   -1    0    0  503  502  0.00000000000E+00  0.00000000000E+00  0.16078599682E+03  0.16078599682E+03  0.00000000000E+00 0.  1.
         21   -1    0    0  501  503 -0.00000000000E+00 -0.00000000000E+00 -0.26887432635E+03  0.26887432635E+03  0.00000000000E+00 0. -1.
          6    2    1    2  501    0 -0.35559229509E+02  0.79576395519E+02 -0.13635807183E+03  0.23560522662E+03  0.17122919591E+03 0.  0.
         24    2    3    3    0    0  0.15125041419E+02 -0.10819973068E+02 -0.32719166640E+02  0.88964470204E+02  0.80611999094E+02 0.  0.
         -6    2    1    2    0  502  0.35559229509E+02 -0.79576395519E+02  0.28269742292E+02  0.19405509655E+03  0.17105946522E+03 0.  0.
        -24    2    5    5    0    0  0.64542473394E+02 -0.34787284323E+02 -0.32082212992E+02  0.11336717047E+03  0.80292969359E+02 0.  0.
          5    1    3    3  501    0 -0.50684270928E+02  0.90396368587E+02 -0.10363890519E+03  0.14664075642E+03  0.47000000000E+01 0. -1.
        -13    1    4    4    0    0 -0.32717575175E+02  0.30554026210E+01 -0.11417984416E+02  0.34787146745E+02  0.00000000000E+00 0.  1.
         14    1    4    4    0    0  0.47842616594E+02 -0.13875375689E+02 -0.21301182224E+02  0.54177323460E+02  0.00000000000E+00 0. -1.
         -5    1    5    5    0  502 -0.28983243885E+02 -0.44789111196E+02  0.60351955284E+02  0.80687926076E+02  0.47000000000E+01 0.  1.
         11    1    6    6    0    0  0.25385297686E+02 -0.56909524885E+02 -0.27655140237E+02  0.68175612522E+02  0.00000000000E+00 0. -1.
        -12    1    6    6    0    0  0.39157175708E+02  0.22122240563E+02 -0.44270727554E+01  0.45191557952E+02  0.00000000000E+00 0.  1.
</event>
<event>
12    1  0.1596842E-001  0.2112574E+03  0.7818608E-02  0.1140705E+00
         21   -1    0    0  503  502  0.00000000000E+00  0.00000000000E+00  0.14305243116E+03  0.14305243116E+03  0.00000000000E+00 0. -1.
         21   -1    0    0  501  503 -0.00000000000E+00 -0.00000000000E+00 -0.34275432312E+03  0.34275432312E+03  0.00000000000E+00 0.  1.
          6    2    1    2  501    0 -0.10496729445E+03 -0.64415296073E+02 -0.17392519878E+03  0.27364152058E+03  0.17164569247E+03 0.  0.
         24    2    3    3    0    0 -0.22959141138E+02  0.87511718106E+01 -0.13455694338E+03  0.15680565808E+03  0.76672930197E+02 0.  0.
         -6    2    1    2    0  502  0.10496729445E+03  0.64415296073E+02 -0.25776693180E+02  0.21216523370E+03  0.17082794036E+03 0.  0.
        -24    2    5    5    0    0  0.81645624633E+02  0.49519536760E+02 -0.84514304050E+02  0.14706545752E+03  0.73262464216E+02 0.  0.
          5    1    3    3  501    0 -0.82008153313E+02 -0.73166467883E+02 -0.39368255399E+02  0.11683586250E+03  0.47000000000E+01 0. -1.
        -11    1    4    4    0    0 -0.40063027295E+02  0.59449889074E+01 -0.13342430722E+03  0.13943613164E+03  0.00000000000E+00 0.  1.
         12    1    4    4    0    0  0.17103886157E+02  0.28061829032E+01 -0.11326361579E+01  0.17369526442E+02  0.00000000000E+00 0. -1.
         -5    1    5    5    0  502  0.23321669818E+02  0.14895759313E+02  0.58737610870E+02  0.65099776185E+02  0.47000000000E+01 0.  1.
         11    1    6    6    0    0  0.57376357665E+02  0.68061966588E+02 -0.55280867657E+02  0.10478765215E+03  0.00000000000E+00 0. -1.
        -12    1    6    6    0    0  0.24269266968E+02 -0.18542429828E+02 -0.29233436393E+02  0.42277805364E+02  0.00000000000E+00 0.  1.
</event>
<event>
12    1  0.1596842E-001  0.2881791E+03  0.7818608E-02  0.1091350E+00
         21   -1    0    0  501  502  0.00000000000E+00  0.00000000000E+00  0.45652904057E+03  0.45652904057E+03  0.00000000000E+00 0. -1.
         21   -1    0    0  502  503 -0.00000000000E+00 -0.00000000000E+00 -0.33044644575E+03  0.33044644575E+03  0.00000000000E+00 0. -1.
         -6    2    1    2    0  503 -0.14195563678E+03  0.18213299713E+03 -0.20098987466E+03  0.35105854614E+03  0.17181775707E+03 0.  0.
        -24    2    3    3    0    0 -0.16291937869E+03  0.17438903088E+03 -0.20857914251E+03  0.32699333319E+03  0.80405989944E+02 0.  0.
          6    2    1    2  501    0  0.14195563678E+03 -0.18213299713E+03  0.32707246947E+03  0.43591694018E+03  0.17240460257E+03 0.  0.
         24    2    5    5    0    0  0.95633317978E+02 -0.13453270184E+03  0.12233798911E+03  0.22062680389E+03  0.80404127037E+02 0.  0.
          5    1    5    5  501    0  0.46322318807E+02 -0.47600295296E+02  0.20473448037E+03  0.21529013629E+03  0.47000000000E+01 0. -1.
        -11    1    6    6    0    0 -0.14281134543E+02 -0.11197826228E+02  0.88030349288E+01  0.20170164601E+02  0.00000000000E+00 0.  1.
         12    1    6    6    0    0  0.10991445252E+03 -0.12333487561E+03  0.11353495418E+03  0.20045663929E+03  0.00000000000E+00 0. -1.
         -5    1    3    3    0  503  0.20963741903E+02  0.77439662494E+01  0.75892678472E+01  0.24065212949E+02  0.47000000000E+01 0.  1.
         11    1    4    4    0    0 -0.59725219829E+02  0.50896100501E+02 -0.11975735252E+03  0.14317590025E+03  0.00000000000E+00 0. -1.
        -12    1    4    4    0    0 -0.10319415886E+03  0.12349293038E+03 -0.88821789987E+02  0.18381743294E+03  0.00000000000E+00 0.  1.
</event>
<event>
12    1  0.1596842E-001  0.1947412E+03  0.7818608E-02  0.1158658E+00
         21   -1    0    0  503  502  0.00000000000E+00  0.00000000000E+00  0.23298322863E+03  0.23298322863E+03  0.00000000000E+00 0. -1.
         21   -1    0    0  501  503 -0.00000000000E+00 -0.00000000000E+00 -0.16274834129E+03  0.16274834129E+03  0.00000000000E+00 0. -1.
          6    2    1    2  501    0 -0.43395374444E+02  0.13382386134E+02 -0.24309890643E+02  0.19625264954E+03  0.18937234457E+03 0.  0.
         24    2    3    3    0    0  0.20609323309E+01  0.66126903631E+02 -0.57633105045E+02  0.11891710422E+03  0.80266356923E+02 0.  0.
         -6    2    1    2    0  502  0.43395374444E+02 -0.13382386134E+02  0.94544777982E+02  0.19947892038E+03  0.16967874897E+03 0.  0.
        -24    2    5    5    0    0 -0.14248275667E+02  0.12999398654E+02 -0.58951921541E+01  0.80613170192E+02  0.78049549602E+02 0.  0.
          5    1    3    3  501    0 -0.45456306775E+02 -0.52744517497E+02  0.33323214402E+02  0.77335545318E+02  0.47000000000E+01 0. -1.
        -11    1    4    4    0    0 -0.20821318764E+02  0.15553304208E+02 -0.57836538807E+02  0.63407395531E+02  0.00000000000E+00 0.  1.
         12    1    4    4    0    0  0.22882251095E+02  0.50573599422E+02  0.20343376219E+00  0.55509708691E+02  0.00000000000E+00 0. -1.
         -5    1    5    5    0  502  0.57643650111E+02 -0.26381784788E+02  0.10043997014E+03  0.11886575019E+03  0.47000000000E+01 0.  1.
         13    1    6    6    0    0 -0.55086978251E+01  0.36312209816E+02  0.22324656949E+02  0.42980375072E+02  0.00000000000E+00 0. -1.
        -14    1    6    6    0    0 -0.87395778415E+01 -0.23312811162E+02 -0.28219849104E+02  0.37632795120E+02  0.00000000000E+00 0.  1.
</event>
<event>
12    1  0.1596842E-001  0.1934464E+03  0.7818608E-02  0.1155684E+00
         21   -1    0    0  503  502  0.00000000000E+00  0.00000000000E+00  0.39587230054E+03  0.39587230054E+03  0.00000000000E+00 0. -1.
         21   -1    0    0  501  503 -0.00000000000E+00 -0.00000000000E+00 -0.23976499355E+03  0.23976499355E+03  0.00000000000E+00 0. -1.
          6    2    1    2  501    0 -0.80287368755E+02 -0.32327400659E+02 -0.16996207880E+03  0.25650310140E+03  0.17150979676E+03 0.  0.
         24    2    3    3    0    0 -0.10699507686E+03 -0.64493198153E+02 -0.11389820439E+03  0.18640896317E+03  0.78537771210E+02 0.  0.
         -6    2    1    2    0  502  0.80287368755E+02  0.32327400659E+02  0.32606938579E+03  0.37913419269E+03  0.17300395747E+03 0.  0.
        -24    2    5    5    0    0  0.79642009970E+02  0.78419246209E+02  0.28718545969E+03  0.31864514886E+03  0.81035885306E+02 0.  0.
          5    1    3    3  501    0  0.26707708104E+02  0.32165797494E+02 -0.56063874405E+02  0.70094138228E+02  0.47000000000E+01 0. -1.
        -11    1    4    4    0    0 -0.34293290181E+02  0.16163993701E+02 -0.20051956859E+02  0.42888056819E+02  0.00000000000E+00 0.  1.
         12    1    4    4    0    0 -0.72701786678E+02 -0.80657191854E+02 -0.93846247533E+02  0.14352090635E+03  0.00000000000E+00 0. -1.
         -5    1    5    5    0  502  0.64535878458E+00 -0.46091845550E+02  0.38883926109E+02  0.60489043833E+02  0.47000000000E+01 0.  1.
         11    1    6    6    0    0  0.90292648232E+02  0.55891771211E+02  0.26420796073E+03  0.28474988837E+03  0.00000000000E+00 0. -1.
        -12    1    6    6    0    0 -0.10650638262E+02  0.22527474997E+02  0.22977498952E+02  0.33895260484E+02  0.00000000000E+00 0.  1.
</event>
<event>
12    1  0.1596842E-001  0.2717101E+03  0.7818608E-02  0.1100310E+00
         21   -1    0    0  503  502  0.00000000000E+00  0.00000000000E+00  0.61165375879E+02  0.61165375879E+02  0.00000000000E+00 0. -1.
         21   -1    0    0  501  503 -0.00000000000E+00 -0.00000000000E+00 -0.14393435008E+04  0.14393435008E+04  0.00000000000E+00 0. -1.
          6    2    1    2  501    0 -0.21007765953E+03  0.12389771861E+02 -0.38750810194E+03  0.47325355928E+03  0.17181464669E+03 0.  0.
         24    2    3    3    0    0 -0.20620775420E+03 -0.10427689674E+02 -0.25083278450E+03  0.33455300009E+03  0.79863943617E+02 0.  0.
         -6    2    1    2    0  502  0.21007765953E+03 -0.12389771861E+02 -0.99067002298E+03  0.10272553174E+04  0.17187281119E+03 0.  0.
        -24    2    5    5    0    0  0.10059127257E+03  0.28992447107E+01 -0.76915978934E+03  0.77964696422E+03  0.78202286111E+02 0.  0.
          5    1    3    3  501    0 -0.38699053282E+01  0.22817461534E+02 -0.13667531745E+03  0.13870055918E+03  0.47000000000E+01 0. -1.
        -13    1    4    4    0    0 -0.43809947370E+02 -0.15596312707E+02 -0.11040082128E+03  0.11979523278E+03  0.00000000000E+00 0.  1.
         14    1    4    4    0    0 -0.16239780683E+03  0.51686230336E+01 -0.14043196322E+03  0.21475776731E+03  0.00000000000E+00 0. -1.
         -5    1    5    5    0  502  0.10948638696E+03 -0.15289016572E+02 -0.22151023365E+03  0.24760835318E+03  0.47000000000E+01 0.  1.
         13    1    6    6    0    0  0.60015832447E+02  0.33818162012E+02 -0.56615797265E+03  0.57033360257E+03  0.00000000000E+00 0. -1.
        -14    1    6    6    0    0  0.40575440122E+02 -0.30918917301E+02 -0.20300181669E+03  0.20931336165E+03  0.00000000000E+00 0.  1.
</event>
<event>
12    1  0.1596842E-001  0.2585729E+03  0.7818608E-02  0.1108100E+00
         21   -1    0    0  503  502  0.00000000000E+00  0.00000000000E+00  0.24682432114E+03  0.24682432114E+03  0.00000000000E+00 0. -1.
         21   -1    0    0  501  503 -0.00000000000E+00 -0.00000000000E+00 -0.41695386591E+03  0.41695386591E+03  0.00000000000E+00 0. -1.
          6    2    1    2  501    0  0.17639844059E+02  0.19146177425E+03  0.11175771766E+03  0.28169079968E+03  0.17289055518E+03 0.  0.
         24    2    3    3    0    0 -0.82961123039E+01  0.74338401792E+02  0.11819691664E+03  0.16146554654E+03  0.80657226319E+02 0.  0.
         -6    2    1    2    0  502 -0.17639844059E+02 -0.19146177425E+03 -0.28188726243E+03  0.38208738736E+03  0.17193477765E+03 0.  0.
        -24    2    5    5    0    0  0.68145991900E+01 -0.20625407651E+03 -0.21238664307E+03  0.30679291152E+03  0.80166212137E+02 0.  0.
          5    1    3    3  501    0  0.25935956363E+02  0.11712337246E+03 -0.64391989777E+01  0.12022525313E+03  0.47000000000E+01 0. -1.
        -11    1    4    4    0    0  0.31153359672E+02  0.24206008616E+02  0.19654518813E+02  0.44076782797E+02  0.00000000000E+00 0.  1.
         12    1    4    4    0    0 -0.39449471976E+02  0.50132393176E+02  0.98542397827E+02  0.11738876375E+03  0.00000000000E+00 0. -1.
         -5    1    5    5    0  502 -0.24454443249E+02  0.14792302260E+02 -0.69500619360E+02  0.75294475841E+02  0.47000000000E+01 0.  1.
         13    1    6    6    0    0 -0.65570604048E+01 -0.18430402518E+03 -0.14476775357E+03  0.23445398527E+03  0.00000000000E+00 0. -1.
        -14    1    6    6    0    0  0.13371659595E+02 -0.21950051332E+02 -0.67618889499E+02  0.72338926249E+02  0.00000000000E+00 0.  1.
</event>
<event>
12    1  0.1596842E-001  0.1950364E+03  0.7818608E-02  0.1154654E+00
         21   -1    0    0  503  502  0.00000000000E+00  0.00000000000E+00  0.13437911768E+03  0.13437911768E+03  0.00000000000E+00 0. -1.
         21   -1    0    0  501  503 -0.00000000000E+00 -0.00000000000E+00 -0.30773377238E+03  0.30773377238E+03  0.00000000000E+00 0.  1.
          6    2    1    2  501    0 -0.87543821458E+02 -0.17925716192E+02 -0.15391632387E+03  0.24611023740E+03  0.16998459407E+03 0.  0.
         24    2    3    3    0    0 -0.50611163142E+01 -0.22708320454E+02 -0.14095039578E+03  0.16234583420E+03  0.77122455202E+02 0.  0.
         -6    2    1    2    0  502  0.87543821458E+02  0.17925716192E+02 -0.19438330831E+02  0.19600265267E+03  0.17336071980E+03 0.  0.
        -24    2    5    5    0    0 -0.25983261084E+01 -0.30934020309E+02  0.18879662093E+02  0.86443357304E+02  0.78436901202E+02 0.  0.
          5    1    3    3  501    0 -0.82482705144E+02  0.47826042620E+01 -0.12965928092E+02  0.83764403195E+02  0.47000000000E+01 0. -1.
        -13    1    4    4    0    0  0.35824166677E+02 -0.71454416940E+01 -0.70898026901E+02  0.79755617191E+02  0.00000000000E+00 0.  1.
         14    1    4    4    0    0 -0.40885282991E+02 -0.15562878760E+02 -0.70052368879E+02  0.82590217012E+02  0.00000000000E+00 0. -1.
         -5    1    5    5    0  502  0.90142147566E+02  0.48859736501E+02 -0.38317992924E+02  0.10955929536E+03  0.47000000000E+01 0.  1.
         13    1    6    6    0    0 -0.35115545829E+02 -0.58749456816E+01 -0.91176814955E+01  0.36752532723E+02  0.00000000000E+00 0. -1.
        -14    1    6    6    0    0  0.32517219721E+02 -0.25059074628E+02  0.27997343589E+02  0.49690824582E+02  0.00000000000E+00 0.  1.
</event>
<event>
12    1  0.1596842E-001  0.1803499E+03  0.7818608E-02  0.1167824E+00
         21   -1    0    0  503  502  0.00000000000E+00  0.00000000000E+00  0.10853818069E+03  0.10853818069E+03  0.00000000000E+00 0.  1.
         21   -1    0    0  501  503 -0.00000000000E+00 -0.00000000000E+00 -0.37900637359E+03  0.37900637359E+03  0.00000000000E+00 0.  1.
          6    2    1    2  501    0  0.49460665583E+02 -0.59994793492E+01 -0.24803862681E+03  0.30580526482E+03  0.17178867370E+03 0.  0.
         24    2    3    3    0    0  0.13726966854E+02  0.46660663850E+02 -0.21347785708E+03  0.23323443934E+03  0.80373260858E+02 0.  0.
         -6    2    1    2    0  502 -0.49460665583E+02  0.59994793492E+01 -0.22429566091E+02  0.18173928947E+03  0.17333128024E+03 0.  0.
        -24    2    5    5    0    0  0.79341645268E+01 -0.48075181810E+02 -0.35447403064E+02  0.10167812796E+03  0.81900850106E+02 0.  0.
          5    1    3    3  501    0  0.35733698728E+02 -0.52660143199E+02 -0.34560769728E+02  0.72570825479E+02  0.47000000000E+01 0. -1.
        -11    1    4    4    0    0  0.18854713752E+02 -0.14592028833E+02 -0.11267012314E+03  0.11516503021E+03  0.00000000000E+00 0.  1.
         12    1    4    4    0    0 -0.51277468974E+01  0.61252692682E+02 -0.10080773395E+03  0.11806940913E+03  0.00000000000E+00 0. -1.
         -5    1    5    5    0  502 -0.57394830109E+02  0.54074661159E+02  0.13017836973E+02  0.80061161509E+02  0.47000000000E+01 0.  1.
         11    1    6    6    0    0  0.25873588897E+02 -0.27825939648E+02  0.17795051962E+02  0.41956994578E+02  0.00000000000E+00 0. -1.
        -12    1    6    6    0    0 -0.17939424370E+02 -0.20249242162E+02 -0.53242455026E+02  0.59721133379E+02  0.00000000000E+00 0.  1.
</event>
<event>
12    1  0.1596842E-001  0.1836966E+03  0.7818608E-02  0.1164338E+00
         21   -1    0    0  503  502  0.00000000000E+00  0.00000000000E+00  0.40277472211E+03  0.40277472211E+03  0.00000000000E+00 0. -1.
         21   -1    0    0  501  503 -0.00000000000E+00 -0.00000000000E+00 -0.11967244655E+03  0.11967244655E+03  0.00000000000E+00 0. -1.
          6    2    1    2  501    0  0.56921337571E+02  0.26243226705E+02 -0.18368110419E+01  0.18342694707E+03  0.17237553602E+03 0.  0.
         24    2    3    3    0    0  0.20790868069E+02  0.37089705812E+02  0.58362505855E+02  0.11222930181E+03  0.85914653130E+02 0.  0.
         -6    2    1    2    0  502 -0.56921337571E+02 -0.26243226705E+02  0.28493908661E+03  0.33902022159E+03  0.17267218059E+03 0.  0.
        -24    2    5    5    0    0 -0.90508918427E+02  0.11442438651E+02  0.25097000050E+03  0.27799298364E+03  0.77274601800E+02 0.  0.
          5    1    3    3  501    0  0.36130469502E+02 -0.10846479107E+02 -0.60199316897E+02  0.71197645258E+02  0.47000000000E+01 0. -1.
        -11    1    4    4    0    0  0.53142175516E+02  0.21758075101E+02  0.48315303144E+02  0.75045807135E+02  0.00000000000E+00 0.  1.
         12    1    4    4    0    0 -0.32351307447E+02  0.15331630711E+02  0.10047202711E+02  0.37183494673E+02  0.00000000000E+00 0. -1.
         -5    1    5    5    0  502  0.33587580856E+02 -0.37685665356E+02  0.33969086106E+02  0.61027237951E+02  0.47000000000E+01 0.  1.
         13    1    6    6    0    0 -0.47254189433E+02  0.16737405694E+02  0.44685189683E+02  0.67155531011E+02  0.00000000000E+00 0. -1.
        -14    1    6    6    0    0 -0.43254728995E+02 -0.52949670433E+01  0.20628481082E+03  0.21083745263E+03  0.00000000000E+00 0.  1.
</event>
<event>
12    1  0.1596842E-001  0.2458465E+03  0.7818608E-02  0.1115961E+00
         21   -1    0    0  503  502  0.00000000000E+00  0.00000000000E+00  0.70141371948E+02  0.70141371948E+02  0.00000000000E+00 0.  1.
         21   -1    0    0  501  503 -0.00000000000E+00 -0.00000000000E+00 -0.10436779049E+04  0.10436779049E+04  0.00000000000E+00 0. -1.
          6    2    1    2  501    0 -0.17472033911E+03 -0.19818299537E+02 -0.71936217534E+03  0.76021209788E+03  0.17181540258E+03 0.  0.
         24    2    3    3    0    0 -0.19878726379E+03 -0.33927791329E+02 -0.61333559123E+03  0.65047595453E+03  0.79189321740E+02 0.  0.
         -6    2    1    2    0  502  0.17472033911E+03  0.19818299537E+02 -0.25417435760E+03  0.35360717895E+03  0.17179485163E+03 0.  0.
        -24    2    5    5    0    0  0.17492499690E+03 -0.18154416564E+02 -0.24962051258E+03  0.31507412097E+03  0.77672157294E+02 0.  0.
          5    1    3    3  501    0  0.24066924671E+02  0.14109491792E+02 -0.10602658411E+03  0.10973614336E+03  0.47000000000E+01 0. -1.
        -11    1    4    4    0    0 -0.16199133866E+03 -0.53543061081E+02 -0.43339924237E+03  0.46577135644E+03  0.00000000000E+00 0.  1.
         12    1    4    4    0    0 -0.36795925122E+02  0.19615269752E+02 -0.17993634886E+03  0.18470459809E+03  0.00000000000E+00 0. -1.
         -5    1    5    5    0  502 -0.20465778638E+00  0.37972716102E+02 -0.45538450126E+01  0.38533057981E+02  0.47000000000E+01 0.  1.
         13    1    6    6    0    0  0.48163749933E+00 -0.63517191583E+01 -0.47069288621E+02  0.47498360416E+02  0.00000000000E+00 0. -1.
        -14    1    6    6    0    0  0.17444335940E+03 -0.11802697406E+02 -0.20255122396E+03  0.26757576055E+03  0.00000000000E+00 0.  1.
</event>
<event>
12    1  0.1596842E-001  0.1733911E+03  0.7818608E-02  0.1175069E+00
         21   -1    0    0  503  502  0.00000000000E+00  0.00000000000E+00  0.97224550147E+03  0.97224550147E+03  0.00000000000E+00 0.  1.
         21   -1    0    0  501  503 -0.00000000000E+00 -0.00000000000E+00 -0.41581418914E+02  0.41581418914E+02  0.00000000000E+00 0.  1.
          6    2    1    2  501    0 -0.22510700358E+02 -0.94855173917E+01  0.20006610203E+03  0.26293553303E+03  0.16885479762E+03 0.  0.
         24    2    3    3    0    0  0.43035660033E+02 -0.29235892153E+02  0.14841166024E+03  0.17704796687E+03  0.81321314887E+02 0.  0.
         -6    2    1    2    0  502  0.22510700358E+02  0.94855173917E+01  0.73059798052E+03  0.75089138735E+03  0.17166175982E+03 0.  0.
        -24    2    5    5    0    0 -0.26567659048E+02 -0.35645878535E+02  0.22697570358E+03  0.24285298714E+03  0.74048188241E+02 0.  0.
          5    1    3    3  501    0 -0.65546360391E+02  0.19750374761E+02  0.51654441797E+02  0.85887566161E+02  0.47000000000E+01 0. -1.
        -13    1    4    4    0    0 -0.23373851251E+02 -0.17149502859E+02  0.42029666738E+02  0.51058155634E+02  0.00000000000E+00 0.  1.
         14    1    4    4    0    0  0.66409511284E+02 -0.12086389294E+02  0.10638199350E+03  0.12598981124E+03  0.00000000000E+00 0. -1.
         -5    1    5    5    0  502  0.49078359406E+02  0.45131395926E+02  0.50362227695E+03  0.50803840022E+03  0.47000000000E+01 0.  1.
         13    1    6    6    0    0 -0.21817694114E+01  0.29152928613E+01 -0.51381258819E+01  0.62975699924E+01  0.00000000000E+00 0. -1.
        -14    1    6    6    0    0 -0.24385889637E+02 -0.38561171396E+02  0.23211382946E+03  0.23655541714E+03  0.00000000000E+00 0.  1.
</event>
<event>
12    1  0.1596842E-001  0.1736142E+03  0.7818608E-02  0.1174610E+00
         21   -1    0    0  501  502  0.00000000000E+00  0.00000000000E+00  0.38260139221E+03  0.38260139221E+03  0.00000000000E+00 0. -1.
         21   -1    0    0  502  503 -0.00000000000E+00 -0.00000000000E+00 -0.19281631545E+03  0.19281631545E+03  0.00000000000E+00 0. -1.
         -6    2    1    2    0  503  0.10293661651E+02  0.18336857174E+02 -0.12697982158E+03  0.21509479153E+03  0.17233599291E+03 0.  0.
        -24    2    3    3    0    0  0.25998462671E+02 -0.45317791874E+02 -0.11330416415E+03  0.14795561722E+03  0.79519863753E+02 0.  0.
          6    2    1    2  501    0 -0.10293661651E+02 -0.18336857174E+02  0.31676489834E+03  0.36032291612E+03  0.17044178848E+03 0.  0.
         24    2    5    5    0    0  0.41499002568E+02 -0.47265748277E+02  0.13649724560E+03  0.17048646695E+03  0.80485521583E+02 0.  0.
          5    1    5    5  501    0 -0.51792664220E+02  0.28928891102E+02  0.18026765274E+03  0.18983644917E+03  0.47000000000E+01 0. -1.
        -13    1    6    6    0    0  0.28428631422E+02 -0.31529199734E+02  0.11717003322E+02  0.44040500533E+02  0.00000000000E+00 0.  1.
         14    1    6    6    0    0  0.13070371147E+02 -0.15736548543E+02  0.12478024227E+03  0.12644596642E+03  0.00000000000E+00 0. -1.
         -5    1    3    3    0  503 -0.15704801020E+02  0.63654649049E+02 -0.13675657426E+02  0.67139174307E+02  0.47000000000E+01 0.  1.
         13    1    4    4    0    0 -0.26889204458E+02 -0.12217913853E+02 -0.55662590326E+02  0.63012940711E+02  0.00000000000E+00 0. -1.
        -14    1    4    4    0    0  0.52887667129E+02 -0.33099878021E+02 -0.57641573828E+02  0.84942676511E+02  0.00000000000E+00 0.  1.
</event>
<event>
12    1  0.1596842E-001  0.2104769E+03  0.7818608E-02  0.1141224E+00
         21   -1    0    0  503  502  0.00000000000E+00  0.00000000000E+00  0.81570951197E+02  0.81570951197E+02  0.00000000000E+00 0. -1.
         21   -1    0    0  501  503 -0.00000000000E+00 -0.00000000000E+00 -0.54318452259E+03  0.54318452259E+03  0.00000000000E+00 0.  1.
          6    2    1    2  501    0 -0.11958101052E+03  0.19857181902E+02 -0.22090396623E+03  0.30512143628E+03  0.17206569335E+03 0.  0.
         24    2    3    3    0    0 -0.59936083808E+02  0.77813006960E+02 -0.13691839378E+03  0.18683339241E+03  0.80702365339E+02 0.  0.
         -6    2    1    2    0  502  0.11958101052E+03 -0.19857181902E+02 -0.24070960516E+03  0.31963403751E+03  0.17184550668E+03 0.  0.
        -24    2    5    5    0    0  0.90604999300E+02  0.15669056997E+02 -0.24485932115E+03  0.27336273950E+03  0.79475247389E+02 0.  0.
          5    1    3    3  501    0 -0.59644926714E+02 -0.57955825057E+02 -0.83985572450E+02  0.11828804386E+03  0.47000000000E+01 0. -1.
        -11    1    4    4    0    0 -0.18247251336E+02  0.14771624788E+02 -0.10000125709E+03  0.10272007836E+03  0.00000000000E+00 0.  1.
         12    1    4    4    0    0 -0.41688832472E+02  0.63041382172E+02 -0.36917136695E+02  0.84113314052E+02  0.00000000000E+00 0. -1.
         -5    1    5    5    0  502  0.28976011222E+02 -0.35526238899E+02  0.41497159899E+01  0.46271298009E+02  0.47000000000E+01 0.  1.
         11    1    6    6    0    0  0.19395521118E+02  0.20373365927E+02 -0.13412559846E+02  0.31163392631E+02  0.00000000000E+00 0. -1.
        -12    1    6    6    0    0  0.71209478182E+02 -0.47043089302E+01 -0.23144676131E+03  0.24219934687E+03  0.00000000000E+00 0.  1.
</event>
<event>
12    1  0.1596842E-001  0.1793598E+03  0.7818608E-02  0.1169773E+00
         21   -1    0    0  503  502  0.00000000000E+00  0.00000000000E+00  0.11261166528E+04  0.11261166528E+04  0.00000000000E+00 0.  1.
         21   -1    0    0  501  503 -0.00000000000E+00 -0.00000000000E+00 -0.90263200576E+02  0.90263200576E+02  0.00000000000E+00 0.  1.
          6    2    1    2  501    0  0.13485401233E+01  0.51652388774E+02  0.91644579198E+01  0.17414175942E+03  0.16604691282E+03 0.  0.
         24    2    3    3    0    0  0.91395418921E+01  0.24512485256E+02 -0.53601798192E+02  0.10515649304E+03  0.86604515468E+02 0.  0.
         -6    2    1    2    0  502 -0.13485401233E+01 -0.51652388774E+02  0.10266889943E+04  0.10422380940E+04  0.17175612257E+03 0.  0.
        -24    2    5    5    0    0 -0.28013447333E+02 -0.61275124309E+02  0.33422874734E+03  0.34918189281E+03  0.75364080495E+02 0.  0.
          5    1    3    3  501    0 -0.77910017688E+01  0.27139903518E+02  0.62766256112E+02  0.68985266382E+02  0.47000000000E+01 0. -1.
        -11    1    4    4    0    0 -0.37488777791E+02  0.10219413023E+01 -0.29171264042E+02  0.47512266523E+02  0.00000000000E+00 0.  1.
         12    1    4    4    0    0  0.46628319684E+02  0.23490543954E+02 -0.24430534150E+02  0.57644226516E+02  0.00000000000E+00 0. -1.
         -5    1    5    5    0  502  0.26664907210E+02  0.96227355348E+01  0.69246024700E+03  0.69305620118E+03  0.47000000000E+01 0.  1.
         11    1    6    6    0    0  0.15167968963E+02 -0.48998586661E+02  0.23079497672E+03  0.23642599277E+03  0.00000000000E+00 0. -1.
        -12    1    6    6    0    0 -0.43181416296E+02 -0.12276537648E+02  0.10343377061E+03  0.11275590004E+03  0.00000000000E+00 0.  1.
</event>
<event>
12    1  0.1596842E-001  0.1886161E+03  0.7818608E-02  0.1161734E+00
         21   -1    0    0  501  502  0.00000000000E+00  0.00000000000E+00  0.11420396456E+03  0.11420396456E+03  0.00000000000E+00 0. -1.
         21   -1    0    0  502  503 -0.00000000000E+00 -0.00000000000E+00 -0.39457597893E+03  0.39457597893E+03  0.00000000000E+00 0. -1.
         -6    2    1    2    0  503 -0.42257541099E+02  0.42198718150E+02 -0.26888820658E+03  0.32844621755E+03  0.17891232096E+03 0.  0.
        -24    2    3    3    0    0  0.10907596583E+02  0.28625776066E+02 -0.25876612713E+03  0.27245244009E+03  0.79573945747E+02 0.  0.
          6    2    1    2  501    0  0.42257541099E+02 -0.42198718150E+02 -0.11483807799E+02  0.18033372594E+03  0.16977026617E+03 0.  0.
         24    2    5    5    0    0 -0.32746548636E+02  0.12210444685E+02  0.17863790344E+00  0.86823977159E+02  0.79479177721E+02 0.  0.
          5    1    5    5  501    0  0.75004089735E+02 -0.54409162835E+02 -0.11662445702E+02  0.93509748781E+02  0.47000000000E+01 0. -1.
        -11    1    6    6    0    0 -0.53588096166E+02  0.95944693576E+01 -0.19708638455E+02  0.57897912939E+02  0.00000000000E+00 0.  1.
         12    1    6    6    0    0  0.20841547529E+02  0.26159753273E+01  0.19887276358E+02  0.28926064220E+02  0.00000000000E+00 0. -1.
         -5    1    3    3    0  503 -0.53165137682E+02  0.13572942085E+02 -0.10122079445E+02  0.55993777457E+02  0.47000000000E+01 0.  1.
         13    1    4    4    0    0  0.41872620828E+02  0.17243495972E+02 -0.19996758727E+03  0.20503095007E+03  0.00000000000E+00 0. -1.
        -14    1    4    4    0    0 -0.30965024245E+02  0.11382280094E+02 -0.58798539868E+02  0.67421490026E+02  0.00000000000E+00 0.  1.
</event>
<event>
12    1  0.1596842E-001  0.1834865E+03  0.7818608E-02  0.1166235E+00
         21   -1    0    0  503  502  0.00000000000E+00  0.00000000000E+00  0.64078161775E+02  0.64078161775E+02  0.00000000000E+00 0.  1.
         21   -1    0    0  501  503 -0.00000000000E+00 -0.00000000000E+00 -0.55256041560E+03  0.55256041560E+03  0.00000000000E+00 0.  1.
          6    2    1    2  501    0 -0.42298721755E+02  0.12783035546E+02 -0.33953102087E+03  0.38593862971E+03  0.17808628222E+03 0.  0.
         24    2    3    3    0    0 -0.50607071377E+02  0.35978546858E+02 -0.91698678988E+02  0.13684021523E+03  0.80380751853E+02 0.  0.
         -6    2    1    2    0  502  0.42298721755E+02 -0.12783035546E+02 -0.14895123296E+03  0.23069994766E+03  0.17053858271E+03 0.  0.
        -24    2    5    5    0    0  0.81497353806E+02 -0.13813298641E+02 -0.50605252185E+02  0.12472062831E+03  0.78496609350E+02 0.  0.
          5    1    3    3  501    0  0.83083496220E+01 -0.23195511313E+02 -0.24783234188E+03  0.24909841448E+03  0.47000000000E+01 0. -1.
        -13    1    4    4    0    0 -0.58474638741E+02 -0.25031793444E+01 -0.72337647479E+02  0.93049903415E+02  0.00000000000E+00 0.  1.
         14    1    4    4    0    0  0.78675673633E+01  0.38481726203E+02 -0.19361031509E+02  0.43790311815E+02  0.00000000000E+00 0. -1.
         -5    1    5    5    0  502 -0.39198632051E+02  0.10302630955E+01 -0.98345980776E+02  0.10597931936E+03  0.47000000000E+01 0.  1.
         13    1    6    6    0    0  0.71429266289E+02 -0.14817635838E+02  0.16681875297E+00  0.72950190150E+02  0.00000000000E+00 0. -1.
        -14    1    6    6    0    0  0.10068087517E+02  0.10043371967E+01 -0.50772070938E+02  0.51770438156E+02  0.00000000000E+00 0.  1.
</event>
<event>
12    1  0.1596842E-001  0.2130328E+03  0.7818608E-02  0.1139301E+00
         21   -1    0    0  503  502  0.00000000000E+00  0.00000000000E+00  0.62364258439E+02  0.62364258439E+02  0.00000000000E+00 0. -1.
         21   -1    0    0  501  503 -0.00000000000E+00 -0.00000000000E+00 -0.73643146587E+03  0.73643146587E+03  0.00000000000E+00 0.  1.
          6    2    1    2  501    0 -0.89255221750E+02  0.89123166030E+02 -0.38478365218E+03  0.43953542713E+03  0.17094882094E+03 0.  0.
         24    2    3    3    0    0  0.71851229589E+01  0.74716035575E+02 -0.25065632667E+03  0.27364228397E+03  0.80108635713E+02 0.  0.
         -6    2    1    2    0  502  0.89255221750E+02 -0.89123166030E+02 -0.28928355525E+03  0.35926029718E+03  0.17167863135E+03 0.  0.
        -24    2    5    5    0    0  0.12320861987E+03 -0.58061843815E+02 -0.15841703952E+03  0.22045909431E+03  0.70389716111E+02 0.  0.
          5    1    3    3  501    0 -0.96440344709E+02  0.14407130455E+02 -0.13412732552E+03  0.16589314316E+03  0.47000000000E+01 0. -1.
        -11    1    4    4    0    0  0.16571327358E+02  0.44082269954E+02 -0.23165191059E+03  0.23639048858E+03  0.00000000000E+00 0.  1.
         12    1    4    4    0    0 -0.93862043989E+01  0.30633765621E+02 -0.19004416081E+02  0.37251795389E+02  0.00000000000E+00 0. -1.
         -5    1    5    5    0  502 -0.33953398119E+02 -0.31061322215E+02 -0.13086651572E+03  0.13880120288E+03  0.47000000000E+01 0.  1.
         11    1    6    6    0    0  0.57885748370E+01 -0.22717896230E+02 -0.48492053855E+01  0.23940033430E+02  0.00000000000E+00 0. -1.
        -12    1    6    6    0    0  0.11742004503E+03 -0.35343947585E+02 -0.15356783414E+03  0.19651906088E+03  0.00000000000E+00 0.  1.
</event>
<event>
12    1  0.1596842E-001  0.1900132E+03  0.7818608E-02  0.1158546E+00
         21   -1    0    0  503  502  0.00000000000E+00  0.00000000000E+00  0.10256578462E+03  0.10256578462E+03  0.00000000000E+00 0.  1.
         21   -1    0    0  501  503 -0.00000000000E+00 -0.00000000000E+00 -0.52615547936E+03  0.52615547936E+03  0.00000000000E+00 0.  1.
          6    2    1    2  501    0 -0.81387573160E+02 -0.15869838220E+02 -0.39289478809E+03  0.43624475104E+03  0.17049158183E+03 0.  0.
         24    2    3    3    0    0 -0.92815929818E+02  0.22748985947E+02 -0.36844322907E+03  0.38889509788E+03  0.79728733334E+02 0.  0.
         -6    2    1    2    0  502  0.81387573160E+02  0.15869838220E+02 -0.30694906655E+02  0.19247651294E+03  0.17096561616E+03 0.  0.
        -24    2    5    5    0    0  0.93741278564E+01 -0.15249446853E+02 -0.65619806131E+02  0.10647543847E+03  0.81918496918E+02 0.  0.
          5    1    3    3  501    0  0.11428356658E+02 -0.38618824167E+02 -0.24451559017E+02  0.47349653160E+02  0.47000000000E+01 0. -1.
        -11    1    4    4    0    0 -0.28888456398E+02  0.47419911599E+02 -0.14944973441E+03  0.15943153403E+03  0.00000000000E+00 0.  1.
         12    1    4    4    0    0 -0.63927473419E+02 -0.24670925651E+02 -0.21899349466E+03  0.22946356385E+03  0.00000000000E+00 0. -1.
         -5    1    5    5    0  502  0.72013445303E+02  0.31119285073E+02  0.34924899477E+02  0.86001074478E+02  0.47000000000E+01 0.  1.
         13    1    6    6    0    0 -0.16348670561E+02  0.36450397450E+01 -0.72004070055E+02  0.73926662635E+02  0.00000000000E+00 0. -1.
        -14    1    6    6    0    0  0.25722798417E+02 -0.18894486598E+02  0.63842639234E+01  0.32548775831E+02  0.00000000000E+00 0.  1.
</event>
<event>
12    1  0.1596842E-001  0.1872920E+03  0.7818608E-02  0.1161370E+00
         21   -1    0    0  501  502  0.00000000000E+00  0.00000000000E+00  0.38969581207E+03  0.38969581207E+03  0.00000000000E+00 0.  1.
         21   -1    0    0  502  503 -0.00000000000E+00 -0.00000000000E+00 -0.10099241595E+03  0.10099241595E+03  0.00000000000E+00 0.  1.
         -6    2    1    2    0  503 -0.29687804704E+02  0.69028986431E+02  0.22921896904E+03  0.29600612434E+03  0.17155734657E+03 0.  0.
        -24    2    3    3    0    0  0.26147562975E+01 -0.25760984039E+02  0.92959527599E+02  0.12683958116E+03  0.82318529679E+02 0.  0.
          6    2    1    2  501    0  0.29687804704E+02 -0.69028986431E+02  0.59484427079E+02  0.19468210369E+03  0.16945901485E+03 0.  0.
         24    2    5    5    0    0  0.55906329265E+01 -0.99862186050E+02  0.75301483808E+01  0.12946939816E+03  0.81865197412E+02 0.  0.
          5    1    5    5  501    0  0.24097171777E+02  0.30833199619E+02  0.51954278698E+02  0.65212705522E+02  0.47000000000E+01 0. -1.
        -11    1    6    6    0    0 -0.26704378456E+02 -0.57821024581E+02  0.31773628417E+02  0.71175544783E+02  0.00000000000E+00 0.  1.
         12    1    6    6    0    0  0.32295011383E+02 -0.42041161469E+02 -0.24243480036E+02  0.58293853382E+02  0.00000000000E+00 0. -1.
         -5    1    3    3    0  503 -0.32302561001E+02  0.94789970471E+02  0.13625944144E+03  0.16916654318E+03  0.47000000000E+01 0.  1.
         11    1    4    4    0    0 -0.35752910275E+02 -0.15422068512E+02  0.20029647204E+02  0.43786956477E+02  0.00000000000E+00 0. -1.
        -12    1    4    4    0    0  0.38367666573E+02 -0.10338915527E+02  0.72929880394E+02  0.83052624684E+02  0.00000000000E+00 0.  1.
</event>
<event>
12    1  0.1596842E-001  0.1856686E+03  0.7818608E-02  0.1162691E+00
         21   -1    0    0  503  502  0.00000000000E+00  0.00000000000E+00  0.36939980413E+03  0.36939980413E+03  0.00000000000E+00 0.  1.
         21   -1    0    0  501  503 -0.00000000000E+00 -0.00000000000E+00 -0.32307605890E+03  0.32307605890E+03  0.00000000000E+00 0. -1.
          6    2    1    2  501    0 -0.55390650197E+01  0.67290637547E+02 -0.26919956678E+03  0.32637778654E+03  0.17174207886E+03 0.  0.
         24    2    3    3    0    0 -0.39976209287E+02 -0.18312029675E+02 -0.10122795976E+03  0.13467414989E+03  0.77179006678E+02 0.  0.
         -6    2    1    2    0  502  0.55390650197E+01 -0.67290637547E+02  0.31552331201E+03  0.36609807649E+03  0.17295701791E+03 0.  0.
        -24    2    5    5    0    0 -0.52646815695E+02 -0.58663275936E+01  0.11957181364E+03  0.15260891451E+03  0.78650881553E+02 0.  0.
          5    1    3    3  501    0  0.34437144268E+02  0.85602667222E+02 -0.16797160701E+03  0.19170363665E+03  0.47000000000E+01 0. -1.
        -13    1    4    4    0    0 -0.28449201050E+02  0.81925939273E+01 -0.21346598462E+00  0.29606100779E+02  0.00000000000E+00 0.  1.
         14    1    4    4    0    0 -0.11527008238E+02 -0.26504623602E+02 -0.10101449378E+03  0.10506804912E+03  0.00000000000E+00 0. -1.
         -5    1    5    5    0  502  0.58185880715E+02 -0.61424309954E+02  0.19595149838E+03  0.21348916198E+03  0.47000000000E+01 0.  1.
         13    1    6    6    0    0 -0.53716102601E+02 -0.35691667277E+02  0.88723883103E+02  0.10968701940E+03  0.00000000000E+00 0. -1.
        -14    1    6    6    0    0  0.10692869059E+01  0.29825339683E+02  0.30847930536E+02  0.42921895112E+02  0.00000000000E+00 0.  1.
</event>
<event>
12    1  0.1596842E-001  0.1792206E+03  0.7818608E-02  0.1168797E+00
         21   -1    0    0  501  502  0.00000000000E+00  0.00000000000E+00  0.12761076191E+04  0.12761076191E+04  0.00000000000E+00 0. -1.
         21   -1    0    0  502  503 -0.00000000000E+00 -0.00000000000E+00 -0.30173542322E+02  0.30173542322E+02  0.00000000000E+00 0. -1.
         -6    2    1    2    0  503 -0.31105091406E+02  0.38278461257E+02  0.35480598369E+03  0.39750133997E+03  0.17229991849E+03 0.  0.
        -24    2    3    3    0    0 -0.56406265171E+02 -0.22108916355E+02  0.27560198558E+03  0.29463177166E+03  0.84740518541E+02 0.  0.
          6    2    1    2  501    0  0.31105091406E+02 -0.38278461257E+02  0.89112809312E+03  0.90877982147E+03  0.17128548762E+03 0.  0.
         24    2    5    5    0    0  0.10026370302E+02  0.44267123300E+02  0.49701057476E+03  0.50553201393E+03  0.80517075071E+02 0.  0.
          5    1    5    5  501    0  0.21078721104E+02 -0.82545584558E+02  0.39411751836E+03  0.40324780755E+03  0.47000000000E+01 0. -1.
        -11    1    6    6    0    0 -0.78574005556E+00 -0.10951865338E+02  0.87502336301E+01  0.14040204072E+02  0.00000000000E+00 0.  1.
         12    1    6    6    0    0  0.10812110357E+02  0.55218988638E+02  0.48826034113E+03  0.49149180985E+03  0.00000000000E+00 0. -1.
         -5    1    3    3    0  503  0.25301173765E+02  0.60387377612E+02  0.79203998102E+02  0.10286956831E+03  0.47000000000E+01 0.  1.
         11    1    4    4    0    0 -0.78378323812E+02 -0.13097015761E+02  0.22765988846E+03  0.24113008581E+03  0.00000000000E+00 0. -1.
        -12    1    4    4    0    0  0.21972058642E+02 -0.90119005941E+01  0.47942097120E+02  0.53501685857E+02  0.00000000000E+00 0.  1.
</event>
<event>
12    1  0.1596842E-001  0.1893097E+03  0.7818608E-02  0.1159191E+00
         21   -1    0    0  501  502  0.00000000000E+00  0.00000000000E+00  0.88635470583E+02  0.88635470583E+02  0.00000000000E+00 0.  1.
         21   -1    0    0  502  503 -0.00000000000E+00 -0.00000000000E+00 -0.64455297775E+03  0.64455297775E+03  0.00000000000E+00 0.  1.
         -6    2    1    2    0  503 -0.43516156019E+02  0.64110596948E+02 -0.50243579225E+03  0.53691703167E+03  0.17272622584E+03 0.  0.
        -24    2    3    3    0    0  0.13661708375E+02  0.93439921193E+02 -0.34973001965E+03  0.37117427792E+03  0.80880138443E+02 0.  0.
          6    2    1    2  501    0  0.43516156019E+02 -0.64110596948E+02 -0.53481714918E+02  0.19627141666E+03  0.17221600010E+03 0.  0.
         24    2    5    5    0    0  0.95491096852E+02 -0.45725709167E+02 -0.40890978636E+02  0.13952623877E+03  0.81154846531E+02 0.  0.
          5    1    5    5  501    0 -0.51974940833E+02 -0.18384887781E+02 -0.12590736282E+02  0.56745177887E+02  0.47000000000E+01 0. -1.
        -11    1    6    6    0    0  0.17136704698E+02  0.22204083796E+02  0.17921594800E-01  0.28047964388E+02  0.00000000000E+00 0.  1.
         12    1    6    6    0    0  0.78354392154E+02 -0.67929792963E+02 -0.40908900231E+02  0.11147827439E+03  0.00000000000E+00 0. -1.
         -5    1    3    3    0  503 -0.57177864394E+02 -0.29329324246E+02 -0.15270577260E+03  0.16574275375E+03  0.47000000000E+01 0.  1.
         11    1    4    4    0    0  0.17046634487E+02  0.29212479677E+02 -0.30544516883E+02  0.45573284146E+02  0.00000000000E+00 0. -1.
        -12    1    4    4    0    0 -0.33849261117E+01  0.64227441517E+02 -0.31918550277E+03  0.32560099377E+03  0.00000000000E+00 0.  1.
</event>
<event>
12    1  0.1596842E-001  0.2007533E+03  0.7818608E-02  0.1151221E+00
         21   -1    0    0  501  502  0.00000000000E+00  0.00000000000E+00  0.21829408664E+03  0.21829408664E+03  0.00000000000E+00 0.  1.
         21   -1    0    0  502  503 -0.00000000000E+00 -0.00000000000E+00 -0.18491116575E+03  0.18491116575E+03  0.00000000000E+00 0.  1.
         -6    2    1    2    0  503 -0.68450579706E+02  0.44874624220E+02 -0.27872516145E+02  0.20267900758E+03  0.18331036303E+03 0.  0.
        -24    2    3    3    0    0  0.17871593023E+02  0.47247000058E+02  0.30921279634E+02  0.98103933616E+02  0.78208589075E+02 0.  0.
          6    2    1    2  501    0  0.68450579706E+02 -0.44874624220E+02  0.61255437036E+02  0.20052624481E+03  0.17250893464E+03 0.  0.
         24    2    5    5    0    0  0.96986036861E+02  0.11671571437E+02  0.45596317544E+02  0.13511185357E+03  0.81447356469E+02 0.  0.
          5    1    5    5  501    0 -0.28535457156E+02 -0.56546195657E+02  0.15659119492E+02  0.65414391242E+02  0.47000000000E+01 0. -1.
        -11    1    6    6    0    0  0.95019451003E+02 -0.18614729910E+02  0.33993501267E+02  0.10261950286E+03  0.00000000000E+00 0.  1.
         12    1    6    6    0    0  0.19665858585E+01  0.30286301347E+02  0.11602816277E+02  0.32492350712E+02  0.00000000000E+00 0. -1.
         -5    1    3    3    0  503 -0.86322172729E+02 -0.23723758373E+01 -0.58793795779E+02  0.10457507396E+03  0.47000000000E+01 0.  1.
         11    1    4    4    0    0 -0.18666061324E+01  0.27476952786E+02  0.54814053549E+02  0.61343684429E+02  0.00000000000E+00 0. -1.
        -12    1    4    4    0    0  0.19738199156E+02  0.19770047271E+02 -0.23892773914E+02  0.36760249188E+02  0.00000000000E+00 0.  1.
</event>
<event>
12    1  0.1596842E-001  0.1882987E+03  0.7818608E-02  0.1160031E+00
         21   -1    0    0  501  502  0.00000000000E+00  0.00000000000E+00  0.23223648897E+03  0.23223648897E+03  0.00000000000E+00 0.  1.
         21   -1    0    0  502  503 -0.00000000000E+00 -0.00000000000E+00 -0.21872039836E+03  0.21872039836E+03  0.00000000000E+00 0.  1.
         -6    2    1    2    0  503 -0.31386154389E+00 -0.81544714135E+02 -0.11723552956E+03  0.22171383856E+03  0.16959722258E+03 0.  0.
        -24    2    3    3    0    0 -0.38677838553E+02 -0.99563513590E+02 -0.11984200130E+03  0.17898965851E+03  0.79160117150E+02 0.  0.
          6    2    1    2  501    0  0.31386154389E+00  0.81544714135E+02  0.13075162017E+03  0.22924304877E+03  0.16972551463E+03 0.  0.
         24    2    5    5    0    0 -0.17469695589E+02  0.11870990619E+03  0.11416514941E+03  0.18458090129E+03  0.81481259736E+02 0.  0.
          5    1    5    5  501    0  0.17783557133E+02 -0.37165192058E+02  0.16586470759E+02  0.44662147477E+02  0.47000000000E+01 0. -1.
        -11    1    6    6    0    0  0.27535189122E+02  0.36697693859E+02  0.63056664979E+02  0.77981089841E+02  0.00000000000E+00 0.  1.
         12    1    6    6    0    0 -0.45004884711E+02  0.82012212333E+02  0.51108484434E+02  0.10659981145E+03  0.00000000000E+00 0. -1.
         -5    1    3    3    0  503  0.38363977009E+02  0.18018799455E+02  0.26064717324E+01  0.42724180047E+02  0.47000000000E+01 0.  1.
         13    1    4    4    0    0  0.13100884576E+02 -0.19256882212E+02 -0.64481224466E+02  0.68558653705E+02  0.00000000000E+00 0. -1.
        -14    1    4    4    0    0 -0.51778723129E+02 -0.80306631378E+02 -0.55360776830E+02  0.11043100481E+03  0.00000000000E+00 0.  1.
</event>
<event>
12    1  0.1596842E-001  0.1798662E+03  0.7818608E-02  0.1167989E+00
         21   -1    0    0  501  502  0.00000000000E+00  0.00000000000E+00  0.73773814206E+02  0.73773814206E+02  0.00000000000E+00 0.  1.
         21   -1    0    0  502  503 -0.00000000000E+00 -0.00000000000E+00 -0.46806490365E+03  0.46806490365E+03  0.00000000000E+00 0.  1.
         -6    2    1    2    0  503  0.36931728598E+02  0.36846965583E+02 -0.12832019311E+03  0.22075872533E+03  0.17189151055E+03 0.  0.
        -24    2    3    3    0    0 -0.16153360749E+02  0.38324285969E+02 -0.98114049983E+01  0.90810150707E+02  0.80128258717E+02 0.  0.
          6    2    1    2  501    0 -0.36931728598E+02 -0.36846965583E+02 -0.26597089633E+03  0.32107999252E+03  0.17213422801E+03 0.  0.
         24    2    5    5    0    0 -0.33526598262E+02 -0.88783404202E+02 -0.18451582558E+03  0.22430185904E+03  0.85198054133E+02 0.  0.
          5    1    5    5  501    0 -0.34051303360E+01  0.51936438619E+02 -0.81455070750E+02  0.96778133480E+02  0.47000000000E+01 0. -1.
        -11    1    6    6    0    0 -0.25743354435E+02  0.10562272633E+02 -0.43148557424E+02  0.51342768804E+02  0.00000000000E+00 0.  1.
         12    1    6    6    0    0 -0.77832438268E+01 -0.99345676835E+02 -0.14136726815E+03  0.17295909024E+03  0.00000000000E+00 0. -1.
         -5    1    3    3    0  503  0.53085089347E+02 -0.14773203855E+01 -0.11850878811E+03  0.12994857462E+03  0.47000000000E+01 0.  1.
         11    1    4    4    0    0 -0.31834220148E+02  0.38287062354E+02 -0.35193733752E+02  0.60974712886E+02  0.00000000000E+00 0. -1.
        -12    1    4    4    0    0  0.15680859398E+02  0.37223614254E-01  0.25382328753E+02  0.29835437822E+02  0.00000000000E+00 0.  1.
</event>
<event>
12    1  0.1596842E-001  0.3201476E+03  0.7818608E-02  0.1075585E+00
         21   -1    0    0  501  502  0.00000000000E+00  0.00000000000E+00  0.40589575747E+03  0.40589575747E+03  0.00000000000E+00 0. -1.
         21   -1    0    0  502  503 -0.00000000000E+00 -0.00000000000E+00 -0.27070218877E+03  0.27070218877E+03  0.00000000000E+00 0. -1.
         -6    2    1    2    0  503 -0.15840327720E+03 -0.21865459227E+03 -0.20155802384E+02  0.32078148975E+03  0.17202638999E+03 0.  0.
        -24    2    3    3    0    0 -0.25110976499E+02 -0.10582817441E+03 -0.49108112903E+02  0.14370251224E+03  0.80053991981E+02 0.  0.
          6    2    1    2  501    0  0.15840327720E+03  0.21865459227E+03  0.15534937108E+03  0.35581645648E+03  0.17196073581E+03 0.  0.
         24    2    5    5    0    0  0.82812424573E+02  0.64259250453E+02  0.34217625834E+02  0.14546701322E+03  0.94882332833E+02 0.  0.
          5    1    5    5  501    0  0.75590852625E+02  0.15439534181E+03  0.12113174525E+03  0.21034944326E+03  0.47000000000E+01 0. -1.
        -13    1    6    6    0    0 -0.13892836861E+02  0.17324612967E+02 -0.15451184435E+02  0.27053506814E+02  0.00000000000E+00 0.  1.
         14    1    6    6    0    0  0.96705261434E+02  0.46934637487E+02  0.49668810269E+02  0.11841350640E+03  0.00000000000E+00 0. -1.
         -5    1    3    3    0  503 -0.13329230070E+03 -0.11282641785E+03  0.28952310519E+02  0.17707897751E+03  0.47000000000E+01 0.  1.
         13    1    4    4    0    0 -0.35898919439E+02 -0.10855631682E+02 -0.25169116230E+02  0.45167040726E+02  0.00000000000E+00 0. -1.
        -14    1    4    4    0    0  0.10787942940E+02 -0.94972542731E+02 -0.23938996673E+02  0.98535471518E+02  0.00000000000E+00 0.  1.
</event>
<event>
12    1  0.1596842E-001  0.1808923E+03  0.7818608E-02  0.1167238E+00
         21   -1    0    0  503  502  0.00000000000E+00  0.00000000000E+00  0.65568995813E+02  0.65568995813E+02  0.00000000000E+00 0. -1.
         21   -1    0    0  501  503 -0.00000000000E+00 -0.00000000000E+00 -0.57075921411E+03  0.57075921411E+03  0.00000000000E+00 0. -1.
          6    2    1    2  501    0 -0.23487720081E+02 -0.46676619584E+02 -0.13793878824E+03  0.22748433573E+03  0.17318092820E+03 0.  0.
         24    2    3    3    0    0 -0.35315201312E+02 -0.72289076380E+01 -0.39683098782E+01  0.87248140820E+02  0.79354080196E+02 0.  0.
         -6    2    1    2    0  502  0.23487720081E+02  0.46676619584E+02 -0.36725143006E+03  0.40884387419E+03  0.17189915874E+03 0.  0.
        -24    2    5    5    0    0  0.52920432371E+01  0.96247504168E+02 -0.27025575745E+03  0.29830607180E+03  0.81588910131E+02 0.  0.
          5    1    3    3  501    0  0.11827481232E+02 -0.39447711946E+02 -0.13397047836E+03  0.14023619491E+03  0.47000000000E+01 0. -1.
        -11    1    4    4    0    0 -0.72242101545E+01 -0.11364924874E+02 -0.39518845341E+02  0.41750327746E+02  0.00000000000E+00 0.  1.
         12    1    4    4    0    0 -0.28090991158E+02  0.41360172364E+01  0.35550535463E+02  0.45497813074E+02  0.00000000000E+00 0. -1.
         -5    1    5    5    0  502  0.18195676843E+02 -0.49570884584E+02 -0.96995672609E+02  0.11053780240E+03  0.47000000000E+01 0.  1.
         13    1    6    6    0    0 -0.35352737550E+01 -0.12676458036E+02 -0.11718385971E+02  0.17621331352E+02  0.00000000000E+00 0. -1.
        -14    1    6    6    0    0  0.88273169920E+01  0.10892396220E+03 -0.25853737148E+03  0.28068474044E+03  0.00000000000E+00 0.  1.
</event>
<event>
12    1  0.1596842E-001  0.2406936E+03  0.7818608E-02  0.1119558E+00
         21   -1    0    0  501  502  0.00000000000E+00  0.00000000000E+00  0.17706546862E+04  0.17706546862E+04  0.00000000000E+00 0.  1.
         21   -1    0    0  502  503 -0.00000000000E+00 -0.00000000000E+00 -0.38049239214E+02  0.38049239214E+02  0.00000000000E+00 0.  1.
         -6    2    1    2    0  503 -0.16268326429E+03  0.46761650723E+02  0.51990585850E+03  0.57234891991E+03  0.16920014173E+03 0.  0.
        -24    2    3    3    0    0 -0.17594105289E+03  0.61380767922E+01  0.45607932278E+03  0.49539464531E+03  0.80091047263E+02 0.  0.
          6    2    1    2  501    0  0.16268326429E+03 -0.46761650723E+02  0.12126995885E+04  0.12363550055E+04  0.17111665981E+03 0.  0.
         24    2    5    5    0    0  0.14104385823E+03 -0.94702796775E+02  0.89264615830E+03  0.91197420220E+03  0.77574428040E+02 0.  0.
          5    1    5    5  501    0  0.21639406058E+02  0.47941146053E+02  0.32005343022E+03  0.32438080334E+03  0.47000000000E+01 0. -1.
        -11    1    6    6    0    0  0.28693577494E+02 -0.20323167534E+02  0.39000368422E+03  0.39158552863E+03  0.00000000000E+00 0.  1.
         12    1    6    6    0    0  0.11235028074E+03 -0.74379629241E+02  0.50264247408E+03  0.52038867357E+03  0.00000000000E+00 0. -1.
         -5    1    3    3    0  503  0.13257788605E+02  0.40623573930E+02  0.63826535721E+02  0.76954274603E+02  0.47000000000E+01 0.  1.
         13    1    4    4    0    0 -0.97954562893E+01 -0.21867496303E+02  0.74856288084E+02  0.78597724040E+02  0.00000000000E+00 0. -1.
        -14    1    4    4    0    0 -0.16614559661E+03  0.28005573095E+02  0.38122303470E+03  0.41679692127E+03  0.00000000000E+00 0.  1.
</event>
<event>
12    1  0.1596842E-001  0.2337810E+03  0.7818608E-02  0.1124578E+00
         21   -1    0    0  503  502  0.00000000000E+00  0.00000000000E+00  0.10104785139E+04  0.10104785139E+04  0.00000000000E+00 0.  1.
         21   -1    0    0  501  503 -0.00000000000E+00 -0.00000000000E+00 -0.96338740420E+02  0.96338740420E+02  0.00000000000E+00 0. -1.
          6    2    1    2  501    0  0.10941627842E+03 -0.11524836186E+03  0.89095752444E+02  0.25018311668E+03  0.17146262529E+03 0.  0.
         24    2    3    3    0    0  0.26015038773E+02 -0.56766013503E+02  0.10613803484E+03  0.14679800540E+03  0.79907505396E+02 0.  0.
         -6    2    1    2    0  502 -0.10941627842E+03  0.11524836186E+03  0.82504402102E+03  0.85663413763E+03  0.16694400928E+03 0.  0.
        -24    2    5    5    0    0 -0.88362098472E+02  0.13268995253E+03  0.79927815156E+03  0.81877310744E+03  0.78290190627E+02 0.  0.
          5    1    3    3  501    0  0.83401239644E+02 -0.58482348360E+02 -0.17042282397E+02  0.10338511127E+03  0.47000000000E+01 0. -1.
        -11    1    4    4    0    0 -0.23366275257E+02  0.33341912043E+01  0.26062110982E+02  0.35161531241E+02  0.00000000000E+00 0.  1.
         12    1    4    4    0    0  0.49381314029E+02 -0.60100204708E+02  0.80075923860E+02  0.11163647416E+03  0.00000000000E+00 0. -1.
         -5    1    5    5    0  502 -0.21054179945E+02 -0.17441590668E+02  0.25765869460E+02  0.37861030192E+02  0.47000000000E+01 0.  1.
         13    1    6    6    0    0  0.85957072867E+01  0.13355466430E+02  0.17972908976E+03  0.18042948864E+03  0.00000000000E+00 0. -1.
        -14    1    6    6    0    0 -0.96957805759E+02  0.11933448610E+03  0.61954906181E+03  0.63834361880E+03  0.00000000000E+00 0.  1.
</event>
<event>
12    1  0.1596842E-001  0.1867237E+03  0.7818608E-02  0.1161727E+00
         21   -1    0    0  501  502  0.00000000000E+00  0.00000000000E+00  0.36291460823E+02  0.36291460823E+02  0.00000000000E+00 0.  1.
         21   -1    0    0  502  503 -0.00000000000E+00 -0.00000000000E+00 -0.12149277145E+04  0.12149277145E+04  0.00000000000E+00 0.  1.
         -6    2    1    2    0  503  0.54240616708E+01 -0.68178676476E+02 -0.88041403797E+03  0.89999700927E+03  0.17374690231E+03 0.  0.
        -24    2    3    3    0    0  0.26205092852E+00 -0.50562484625E+01 -0.17791291588E+03  0.19463114405E+03  0.78756855436E+02 0.  0.
          6    2    1    2  501    0 -0.54240616708E+01  0.68178676476E+02 -0.29822221568E+03  0.35122216603E+03  0.17246091620E+03 0.  0.
         24    2    5    5    0    0 -0.47094021535E+02  0.30948888720E+01 -0.88848938993E+02  0.12799236525E+03  0.79123235537E+02 0.  0.
          5    1    5    5  501    0  0.41669959864E+02  0.65083787604E+02 -0.20937327669E+03  0.22322980078E+03  0.47000000000E+01 0. -1.
        -13    1    6    6    0    0 -0.22876144146E+02  0.40567889851E+02 -0.36246492852E+02  0.59015929223E+02  0.00000000000E+00 0.  1.
         14    1    6    6    0    0 -0.24217877389E+02 -0.37473000979E+02 -0.52602446141E+02  0.68976436032E+02  0.00000000000E+00 0. -1.
         -5    1    3    3    0  503  0.51620107423E+01 -0.63122428014E+02 -0.70250112209E+03  0.70536586522E+03  0.47000000000E+01 0.  1.
         11    1    4    4    0    0  0.31896896833E+02 -0.11746762483E+02 -0.14325233362E+03  0.14722985276E+03  0.00000000000E+00 0. -1.
        -12    1    4    4    0    0 -0.31634845905E+02  0.66905140208E+01 -0.34660582260E+02  0.47401291290E+02  0.00000000000E+00 0.  1.
</event>
<event>
12    1  0.1596842E-001  0.1861863E+03  0.7818608E-02  0.1162431E+00
         21   -1    0    0  501  502  0.00000000000E+00  0.00000000000E+00  0.45917638508E+02  0.45917638508E+02  0.00000000000E+00 0.  1.
         21   -1    0    0  502  503 -0.00000000000E+00 -0.00000000000E+00 -0.77977011916E+03  0.77977011916E+03  0.00000000000E+00 0.  1.
         -6    2    1    2    0  503  0.91081405576E+01  0.70018771402E+02 -0.45017472053E+03  0.48636723839E+03  0.17003007088E+03 0.  0.
        -24    2    3    3    0    0 -0.44263035854E+02  0.48749623197E+02 -0.15793468967E+03  0.18849615088E+03  0.79067633023E+02 0.  0.
          6    2    1    2  501    0 -0.91081405576E+01 -0.70018771402E+02 -0.28367776012E+03  0.33932051928E+03  0.17227813744E+03 0.  0.
         24    2    5    5    0    0  0.36726704038E+02 -0.89586032519E+01 -0.69029879598E+02  0.11144998646E+03  0.78910505272E+02 0.  0.
          5    1    5    5  501    0 -0.45834844596E+02 -0.61060168150E+02 -0.21464788053E+03  0.22787053282E+03  0.47000000000E+01 0. -1.
        -13    1    6    6    0    0  0.16751823179E+02 -0.42826193845E+02 -0.49441011725E+02  0.67521256649E+02  0.00000000000E+00 0.  1.
         14    1    6    6    0    0  0.19974880860E+02  0.33867590594E+02 -0.19588867873E+02  0.43928729808E+02  0.00000000000E+00 0. -1.
         -5    1    3    3    0  503  0.53371176412E+02  0.21269148205E+02 -0.29224003086E+03  0.29787108751E+03  0.47000000000E+01 0.  1.
         13    1    4    4    0    0  0.21013197376E+02 -0.44156528479E+00 -0.36422188478E+02  0.42051459634E+02  0.00000000000E+00 0. -1.
        -14    1    4    4    0    0 -0.65276233231E+02  0.49191188482E+02 -0.12151250119E+03  0.14644469125E+03  0.00000000000E+00 0.  1.
</event>
<event>
12    1  0.1596842E-001  0.2380309E+03  0.7818608E-02  0.1121201E+00
         21   -1    0    0  501  502  0.00000000000E+00  0.00000000000E+00  0.56528388692E+03  0.56528388692E+03  0.00000000000E+00 0.  1.
         21   -1    0    0  502  503 -0.00000000000E+00 -0.00000000000E+00 -0.22934748623E+03  0.22934748623E+03  0.00000000000E+00 0. -1.
         -6    2    1    2    0  503  0.16229067229E+03 -0.30556394188E+02 -0.13032028853E+03  0.27137074047E+03  0.17142562715E+03 0.  0.
        -24    2    3    3    0    0  0.63307596599E+02 -0.79302418083E+02 -0.76021778063E+02  0.14830879526E+03  0.76938044631E+02 0.  0.
          6    2    1    2  501    0 -0.16229067229E+03  0.30556394188E+02  0.46625668922E+03  0.52326063268E+03  0.17068811890E+03 0.  0.
         24    2    5    5    0    0 -0.17251076167E+03 -0.11774134598E+02  0.34270215151E+03  0.39217235067E+03  0.80347960993E+02 0.  0.
          5    1    5    5  501    0  0.10220089384E+02  0.42330528786E+02  0.12355453770E+03  0.13108828201E+03  0.47000000000E+01 0. -1.
        -13    1    6    6    0    0 -0.14230740923E+03  0.15190398032E+02  0.21559846549E+03  0.25877566585E+03  0.00000000000E+00 0.  1.
         14    1    6    6    0    0 -0.30203352439E+02 -0.26964532631E+02  0.12710368602E+03  0.13339668481E+03  0.00000000000E+00 0. -1.
         -5    1    3    3    0  503  0.98983075690E+02  0.48746023896E+02 -0.54298510466E+02  0.12306194520E+03  0.47000000000E+01 0.  1.
         13    1    4    4    0    0  0.14757731188E+02  0.24329438439E+01 -0.46373330093E+02  0.48725717947E+02  0.00000000000E+00 0. -1.
        -14    1    4    4    0    0  0.48549865411E+02 -0.81735361927E+02 -0.29648447971E+02  0.99583077317E+02  0.00000000000E+00 0.  1.
</event>
<event>
12    1  0.1596842E-001  0.1958899E+03  0.7818608E-02  0.1153308E+00
         21   -1    0    0  503  502  0.00000000000E+00  0.00000000000E+00  0.29879323157E+03  0.29879323157E+03  0.00000000000E+00 0. -1.
         21   -1    0    0  501  503 -0.00000000000E+00 -0.00000000000E+00 -0.13364319833E+03  0.13364319833E+03  0.00000000000E+00 0. -1.
          6    2    1    2  501    0 -0.71492895425E+02 -0.64198783451E+02  0.12601166660E+03  0.23292017430E+03  0.17070486104E+03 0.  0.
         24    2    3    3    0    0 -0.75342263436E+02  0.18140687228E+02  0.71635398718E+02  0.13405928934E+03  0.82672374569E+02 0.  0.
         -6    2    1    2    0  502  0.71492895425E+02  0.64198783451E+02  0.39138366652E+02  0.19951625560E+03  0.17041774148E+03 0.  0.
        -24    2    5    5    0    0 -0.77612143695E+01 -0.10959348192E+02 -0.48440294333E+01  0.81675261727E+02  0.80417908427E+02 0.  0.
          5    1    3    3  501    0  0.38493680106E+01 -0.82339470679E+02  0.54376267879E+02  0.98860884956E+02  0.47000000000E+01 0. -1.
        -13    1    4    4    0    0 -0.26573277167E+02 -0.11414417614E+01 -0.16645240419E+02  0.31376838230E+02  0.00000000000E+00 0.  1.
         14    1    4    4    0    0 -0.48768986269E+02  0.19282128989E+02  0.88280639137E+02  0.10268245111E+03  0.00000000000E+00 0. -1.
         -5    1    5    5    0  502  0.79254109795E+02  0.75158131644E+02  0.43982396085E+02  0.11784099387E+03  0.47000000000E+01 0.  1.
         13    1    6    6    0    0  0.41355226860E+01 -0.41995024439E+02  0.12731320570E+02  0.44076877714E+02  0.00000000000E+00 0. -1.
        -14    1    6    6    0    0 -0.11896737055E+02  0.31035676247E+02 -0.17575350004E+02  0.37598384013E+02  0.00000000000E+00 0.  1.
</event>
<event>
12    1  0.1596842E-001  0.2148608E+03  0.7818608E-02  0.1138665E+00
         21   -1    0    0  503  502  0.00000000000E+00  0.00000000000E+00  0.57576701496E+02  0.57576701496E+02  0.00000000000E+00 0. -1.
         21   -1    0    0  501  503 -0.00000000000E+00 -0.00000000000E+00 -0.11933715333E+04  0.11933715333E+04  0.00000000000E+00 0. -1.
          6    2    1    2  501    0 -0.74838023154E+02 -0.94440030863E+02 -0.92984100675E+03  0.95332071374E+03  0.17232653968E+03 0.  0.
         24    2    3    3    0    0  0.78518046963E+01 -0.70076290191E+02 -0.30405648209E+03  0.32160910170E+03  0.77522465836E+02 0.  0.
         -6    2    1    2    0  502  0.74838023154E+02  0.94440030863E+02 -0.20595382508E+03  0.29762752108E+03  0.17789186069E+03 0.  0.
        -24    2    5    5    0    0  0.91113970725E+02  0.75699406835E+02 -0.70814053339E+02  0.16014673928E+03  0.81241566300E+02 0.  0.
          5    1    3    3  501    0 -0.82689827850E+02 -0.24363740671E+02 -0.62578452465E+03  0.63171161204E+03  0.47000000000E+01 0. -1.
        -13    1    4    4    0    0  0.38726732098E+02 -0.15510171616E+02 -0.13515797460E+03  0.14144964935E+03  0.00000000000E+00 0.  1.
         14    1    4    4    0    0 -0.30874927402E+02 -0.54566118575E+02 -0.16889850749E+03  0.18015945235E+03  0.00000000000E+00 0. -1.
         -5    1    5    5    0  502 -0.16275947571E+02  0.18740624028E+02 -0.13513977174E+03  0.13748078180E+03  0.47000000000E+01 0.  1.
         13    1    6    6    0    0  0.50079211762E+02  0.87554314989E+02 -0.51887511490E+02  0.11342838874E+03  0.00000000000E+00 0. -1.
        -14    1    6    6    0    0  0.41034758963E+02 -0.11854908155E+02 -0.18926541849E+02  0.46718350537E+02  0.00000000000E+00 0.  1.
</event>
<event>
12    1  0.1596842E-001  0.2009923E+03  0.7818608E-02  0.1151698E+00
         21   -1    0    0  503  502  0.00000000000E+00  0.00000000000E+00  0.46813466604E+03  0.46813466604E+03  0.00000000000E+00 0.  1.
         21   -1    0    0  501  503 -0.00000000000E+00 -0.00000000000E+00 -0.10647098366E+03  0.10647098366E+03  0.00000000000E+00 0.  1.
          6    2    1    2  501    0  0.35262655323E+02 -0.64847146205E+02  0.35438209683E+02  0.19143340415E+03  0.17303836074E+03 0.  0.
         24    2    3    3    0    0 -0.21846464620E+02 -0.88671138360E+02  0.27137659024E+01  0.12127634176E+03  0.79754296124E+02 0.  0.
         -6    2    1    2    0  502 -0.35262655323E+02  0.64847146205E+02  0.32622547270E+03  0.38317224554E+03  0.18694732810E+03 0.  0.
        -24    2    5    5    0    0 -0.64502039095E+01  0.22868165356E+02  0.32173712521E+03  0.33184362338E+03  0.77722934368E+02 0.  0.
          5    1    3    3  501    0  0.57109119942E+02  0.23823992155E+02  0.32724443780E+02  0.70157062392E+02  0.47000000000E+01 0. -1.
        -11    1    4    4    0    0 -0.65946031519E+01 -0.49186154714E+02 -0.38031901182E+02  0.62523532480E+02  0.00000000000E+00 0.  1.
         12    1    4    4    0    0 -0.15251861468E+02 -0.39484983646E+02  0.40745667085E+02  0.58752809277E+02  0.00000000000E+00 0. -1.
         -5    1    5    5    0  502 -0.28812451413E+02  0.41978980849E+02  0.44883474924E+01  0.51328622159E+02  0.47000000000E+01 0.  1.
         13    1    6    6    0    0  0.10770612689E+02 -0.26371954732E+02  0.94753372791E+02  0.98942850926E+02  0.00000000000E+00 0. -1.
        -14    1    6    6    0    0 -0.17220816599E+02  0.49240120088E+02  0.22698375242E+03  0.23290077246E+03  0.00000000000E+00 0.  1.
</event>
<event>
12    1  0.1596842E-001  0.2233255E+03  0.7818608E-02  0.1132629E+00
         21   -1    0    0  501  502  0.00000000000E+00  0.00000000000E+00  0.27128269853E+03  0.27128269853E+03  0.00000000000E+00 0.  1.
         21   -1    0    0  502  503 -0.00000000000E+00 -0.00000000000E+00 -0.19956822701E+03  0.19956822701E+03  0.00000000000E+00 0.  1.
         -6    2    1    2    0  503  0.13845876310E+03 -0.23608171487E+02 -0.40989121133E+02  0.22069824142E+03  0.16522539416E+03 0.  0.
        -24    2    3    3    0    0  0.95564902655E+02 -0.63486078408E+01 -0.89216487454E+02  0.15372253938E+03  0.80610681924E+02 0.  0.
          6    2    1    2  501    0 -0.13845876310E+03  0.23608171487E+02  0.11270359265E+03  0.25015268412E+03  0.17362629621E+03 0.  0.
         24    2    5    5    0    0 -0.11411107708E+03 -0.18681995770E+02  0.15768852245E+02  0.14152625107E+03  0.80066648240E+02 0.  0.
          5    1    5    5  501    0 -0.24347686018E+02  0.42290167257E+02  0.96934740407E+02  0.10862643306E+03  0.47000000000E+01 0. -1.
        -13    1    6    6    0    0 -0.34056022022E+02  0.23758848319E+02 -0.17419150273E+02  0.45030237682E+02  0.00000000000E+00 0.  1.
         14    1    6    6    0    0 -0.80055055062E+02 -0.42440844089E+02  0.33188002518E+02  0.96496013384E+02  0.00000000000E+00 0. -1.
         -5    1    3    3    0  503  0.42893860447E+02 -0.17259563646E+02  0.48227366322E+02  0.66975702039E+02  0.47000000000E+01 0.  1.
         13    1    4    4    0    0 -0.12864445242E+02 -0.74894134387E+01 -0.20547078667E+02  0.25372577851E+02  0.00000000000E+00 0. -1.
        -14    1    4    4    0    0  0.10842934790E+03  0.11408055978E+01 -0.68669408787E+02  0.12834996153E+03  0.00000000000E+00 0.  1.
</event>
<event>
12    1  0.1596842E-001  0.1881978E+03  0.7818608E-02  0.1160935E+00
         21   -1    0    0  501  502  0.00000000000E+00  0.00000000000E+00  0.22665989865E+02  0.22665989865E+02  0.00000000000E+00 0.  1.
         21   -1    0    0  502  503 -0.00000000000E+00 -0.00000000000E+00 -0.18001450619E+04  0.18001450619E+04  0.00000000000E+00 0.  1.
         -6    2    1    2    0  503 -0.16935637688E+02 -0.74881617480E+02 -0.54477487024E+03  0.57636627570E+03  0.17182651736E+03 0.  0.
        -24    2    3    3    0    0 -0.60155601189E+02 -0.23108604900E+02 -0.43743161686E+03  0.44950779502E+03  0.80982309042E+02 0.  0.
          6    2    1    2  501    0  0.16935637688E+02  0.74881617480E+02 -0.12327042018E+04  0.12464447760E+04  0.16784176530E+03 0.  0.
         24    2    5    5    0    0 -0.40260427649E+02  0.34039586189E+02 -0.39908603981E+03  0.40985599332E+03  0.77023844538E+02 0.  0.
          5    1    5    5  501    0  0.57196065336E+02  0.40842031291E+02 -0.83361816198E+03  0.83658878273E+03  0.47000000000E+01 0. -1.
        -13    1    6    6    0    0 -0.25969068065E+02  0.23753880187E+02 -0.38677066274E+03  0.38836861984E+03  0.00000000000E+00 0.  1.
         14    1    6    6    0    0 -0.14291359584E+02  0.10285706003E+02 -0.12315377069E+02  0.21487373480E+02  0.00000000000E+00 0. -1.
         -5    1    3    3    0  503  0.43219963501E+02 -0.51773012580E+02 -0.10734325338E+03  0.12685848069E+03  0.47000000000E+01 0.  1.
         13    1    4    4    0    0 -0.83330473831E+01  0.91932926167E+00 -0.30702265500E+03  0.30713709566E+03  0.00000000000E+00 0. -1.
        -14    1    4    4    0    0 -0.51822553806E+02 -0.24027934162E+02 -0.13040896186E+03  0.14237069936E+03  0.00000000000E+00 0.  1.
</event>
<event>
12    1  0.1596842E-001  0.1972559E+03  0.7818608E-02  0.1152822E+00
         21   -1    0    0  503  502  0.00000000000E+00  0.00000000000E+00  0.73740795540E+02  0.73740795540E+02  0.00000000000E+00 0.  1.
         21   -1    0    0  501  503 -0.00000000000E+00 -0.00000000000E+00 -0.51961461366E+03  0.51961461366E+03  0.00000000000E+00 0.  1.
          6    2    1    2  501    0 -0.28261442615E+01 -0.92720232041E+02 -0.21101194382E+03  0.28885280863E+03  0.17408295752E+03 0.  0.
         24    2    3    3    0    0 -0.30362267303E+02 -0.76546971331E+02 -0.51316800165E+02  0.12592815935E+03  0.80269429072E+02 0.  0.
         -6    2    1    2    0  502  0.28261442615E+01  0.92720232041E+02 -0.23486187430E+03  0.30450260057E+03  0.17016669837E+03 0.  0.
        -24    2    5    5    0    0  0.33190189877E+02  0.12257710935E+03 -0.17801000037E+03  0.23331528458E+03  0.81373984455E+02 0.  0.
          5    1    3    3  501    0  0.27536123042E+02 -0.16173260709E+02 -0.15969514366E+03  0.16292464928E+03  0.47000000000E+01 0. -1.
        -13    1    4    4    0    0 -0.53343657712E+01 -0.81455994576E+02 -0.57296507227E+02  0.99731761495E+02  0.00000000000E+00 0.  1.
         14    1    4    4    0    0 -0.25027901532E+02  0.49090232441E+01  0.59797070612E+01  0.26196397860E+02  0.00000000000E+00 0. -1.
         -5    1    5    5    0  502 -0.30364045616E+02 -0.29856877308E+02 -0.56851873928E+02  0.71187315990E+02  0.47000000000E+01 0.  1.
         11    1    6    6    0    0  0.48757554468E+02  0.31668604578E+02 -0.60130072058E+02  0.83641049726E+02  0.00000000000E+00 0. -1.
        -12    1    6    6    0    0 -0.15567364590E+02  0.90908504770E+02 -0.11787992831E+03  0.14967423485E+03  0.00000000000E+00 0.  1.
</event>
<event>
12    1  0.1596842E-001  0.2013904E+03  0.7818608E-02  0.1148886E+00
         21   -1    0    0  501  502  0.00000000000E+00  0.00000000000E+00  0.39399964056E+03  0.39399964056E+03  0.00000000000E+00 0.  1.
         21   -1    0    0  502  503 -0.00000000000E+00 -0.00000000000E+00 -0.10456007212E+03  0.10456007212E+03  0.00000000000E+00 0. -1.
         -6    2    1    2    0  503 -0.10001091942E+03 -0.16832849192E+02  0.10758925005E+03  0.22832771432E+03  0.17399014220E+03 0.  0.
        -24    2    3    3    0    0 -0.20577708370E+02 -0.67654681117E+02  0.52276451936E+02  0.11890153256E+03  0.80025927426E+02 0.  0.
          6    2    1    2  501    0  0.10001091942E+03  0.16832849192E+02  0.18185031839E+03  0.27023199836E+03  0.17225059020E+03 0.  0.
         24    2    5    5    0    0  0.26165114120E+01 -0.31089332621E+02  0.11446798475E+03  0.14238570351E+03  0.78723416441E+02 0.  0.
          5    1    5    5  501    0  0.97394408008E+02  0.47922181813E+02  0.67382333632E+02  0.12784629485E+03  0.47000000000E+01 0. -1.
        -13    1    6    6    0    0  0.18922023126E+02  0.53936445758E+01  0.96649815469E+02  0.98632252287E+02  0.00000000000E+00 0.  1.
         14    1    6    6    0    0 -0.16305511714E+02 -0.36482977197E+02  0.17818169285E+02  0.43753451225E+02  0.00000000000E+00 0. -1.
         -5    1    3    3    0  503 -0.79433211050E+02  0.50821831925E+02  0.55312798113E+02  0.10942618175E+03  0.47000000000E+01 0.  1.
         13    1    4    4    0    0  0.62583672973E+01  0.17071187373E+01 -0.16421321820E+02  0.17656195115E+02  0.00000000000E+00 0. -1.
        -14    1    4    4    0    0 -0.26836075667E+02 -0.69361799854E+02  0.68697773757E+02  0.10124533745E+03  0.00000000000E+00 0.  1.
</event>
<event>
12    1  0.1596842E-001  0.2404634E+03  0.7818608E-02  0.1120362E+00
         21   -1    0    0  503  502  0.00000000000E+00  0.00000000000E+00  0.22391593672E+04  0.22391593672E+04  0.00000000000E+00 0. -1.
         21   -1    0    0  501  503 -0.00000000000E+00 -0.00000000000E+00 -0.37272094331E+02  0.37272094331E+02  0.00000000000E+00 0.  1.
          6    2    1    2  501    0  0.38217624034E+02 -0.16379961596E+03  0.44676221770E+03  0.50491047318E+03  0.16446034717E+03 0.  0.
         24    2    3    3    0    0 -0.91930804571E+01 -0.13671898761E+03  0.21716451924E+03  0.26886317185E+03  0.79689286967E+02 0.  0.
         -6    2    1    2    0  502 -0.38217624034E+02  0.16379961596E+03  0.17551250551E+04  0.17715209883E+04  0.17184804884E+03 0.  0.
        -24    2    5    5    0    0 -0.89281741340E+02  0.10442028364E+03  0.10181915540E+04  0.10304228003E+04  0.78627487326E+02 0.  0.
          5    1    3    3  501    0  0.47410704491E+02 -0.27080628355E+02  0.22959769845E+03  0.23604730133E+03  0.47000000000E+01 0.  1.
        -11    1    4    4    0    0  0.94613486453E+01 -0.10650360290E+03  0.20520978590E+03  0.23139488062E+03  0.00000000000E+00 0.  1.
         12    1    4    4    0    0 -0.18654429102E+02 -0.30215384703E+02  0.11954733342E+02  0.37468291223E+02  0.00000000000E+00 0. -1.
         -5    1    5    5    0  502  0.51064117306E+02  0.59379332319E+02  0.73693350110E+03  0.74109818798E+03  0.47000000000E+01 0.  1.
         11    1    6    6    0    0 -0.70520332180E+02  0.43203284145E+02  0.75672907808E+03  0.76123487744E+03  0.00000000000E+00 0. -1.
        -12    1    6    6    0    0 -0.18761409160E+02  0.61216999497E+02  0.26146247596E+03  0.26918792290E+03  0.00000000000E+00 0.  1.
</event>
<event>
12    1  0.1596842E-001  0.2130811E+03  0.7818608E-02  0.1139408E+00
         21   -1    0    0  503  502  0.00000000000E+00  0.00000000000E+00  0.17223517591E+03  0.17223517591E+03  0.00000000000E+00 0. -1.
         21   -1    0    0  501  503 -0.00000000000E+00 -0.00000000000E+00 -0.71319933797E+03  0.71319933797E+03  0.00000000000E+00 0. -1.
          6    2    1    2  501    0 -0.44220453160E+02 -0.11609086982E+03 -0.62231309241E+03  0.65735293477E+03  0.17148398563E+03 0.  0.
         24    2    3    3    0    0  0.27748914067E+02 -0.10520852933E+03 -0.34800661616E+03  0.37351469198E+03  0.81029521540E+02 0.  0.
         -6    2    1    2    0  502  0.44220453160E+02  0.11609086982E+03  0.81348930358E+02  0.22808157911E+03  0.17312140169E+03 0.  0.
        -24    2    5    5    0    0  0.16404967656E+00  0.10303962781E+03 -0.76987652025E+01  0.12776765340E+03  0.75153911792E+02 0.  0.
          5    1    3    3  501    0 -0.71969367227E+02 -0.10882340492E+02 -0.27430647625E+03  0.28383824279E+03  0.47000000000E+01 0. -1.
        -11    1    4    4    0    0 -0.22718446229E+02 -0.53278649010E+02 -0.10460568930E+03  0.11957044984E+03  0.00000000000E+00 0.  1.
         12    1    4    4    0    0  0.50467360296E+02 -0.51929880318E+02 -0.24340092686E+03  0.25394424215E+03  0.00000000000E+00 0. -1.
         -5    1    5    5    0  502  0.44056403483E+02  0.13051242009E+02  0.89047695561E+02  0.10031392571E+03  0.47000000000E+01 0.  1.
         11    1    6    6    0    0  0.25099534165E+02  0.75548075023E+02  0.19247208729E+02  0.81902095814E+02  0.00000000000E+00 0. -1.
        -12    1    6    6    0    0 -0.24935484489E+02  0.27491552789E+02 -0.26945973932E+02  0.45865557585E+02  0.00000000000E+00 0.  1.
</event>
<event>
12    1  0.1596842E-001  0.3066501E+03  0.7818608E-02  0.1082012E+00
         21   -1    0    0  501  502  0.00000000000E+00  0.00000000000E+00  0.14430947590E+03  0.14430947590E+03  0.00000000000E+00 0.  1.
         21   -1    0    0  502  503 -0.00000000000E+00 -0.00000000000E+00 -0.65489978210E+03  0.65489978210E+03  0.00000000000E+00 0.  1.
         -6    2    1    2    0  503 -0.21292425446E+03 -0.13780583202E+03 -0.22366811333E+03  0.37955464765E+03  0.17235753582E+03 0.  0.
        -24    2    3    3    0    0 -0.45491463577E+02 -0.35143258635E+02 -0.26857267229E+02  0.10147202938E+03  0.79187991882E+02 0.  0.
          6    2    1    2  501    0  0.21292425446E+03  0.13780583202E+03 -0.28692219287E+03  0.41965461035E+03  0.17163467526E+03 0.  0.
         24    2    5    5    0    0  0.14580783235E+03  0.21329141915E+02 -0.18326336953E+03  0.24983507346E+03  0.84363766213E+02 0.  0.
          5    1    5    5  501    0  0.67116422116E+02  0.11647669010E+03 -0.10365882334E+03  0.16981953690E+03  0.47000000000E+01 0. -1.
        -13    1    6    6    0    0  0.87707180918E+02 -0.74431443832E+01 -0.49011639621E+02  0.10074765904E+03  0.00000000000E+00 0.  1.
         14    1    6    6    0    0  0.58100651427E+02  0.28772286298E+02 -0.13425172991E+03  0.14908741442E+03  0.00000000000E+00 0. -1.
         -5    1    3    3    0  503 -0.16743279088E+03 -0.10266257338E+03 -0.19681084610E+03  0.27808261826E+03  0.47000000000E+01 0.  1.
         13    1    4    4    0    0 -0.94055345987E+01 -0.11568959954E+02 -0.50259921537E+02  0.52424847434E+02  0.00000000000E+00 0. -1.
        -14    1    4    4    0    0 -0.36085928978E+02 -0.23574298681E+02  0.23402654309E+02  0.49047181950E+02  0.00000000000E+00 0.  1.
</event>
<event>
12    1  0.1596842E-001  0.2722294E+03  0.7818608E-02  0.1100221E+00
         21   -1    0    0  501  502  0.00000000000E+00  0.00000000000E+00  0.83142665066E+03  0.83142665066E+03  0.00000000000E+00 0. -1.
         21   -1    0    0  502  503 -0.00000000000E+00 -0.00000000000E+00 -0.19397112191E+03  0.19397112191E+03  0.00000000000E+00 0.  1.
         -6    2    1    2    0  503 -0.18994219947E+03  0.91992110238E+02 -0.58664889861E+02  0.27847877125E+03  0.17195426499E+03 0.  0.
        -24    2    3    3    0    0 -0.18715372034E+03  0.96798176574E+02 -0.92164706720E+02  0.24419755746E+03  0.82107928225E+02 0.  0.
          6    2    1    2  501    0  0.18994219947E+03 -0.91992110238E+02  0.69612041862E+03  0.74691900132E+03  0.16959884972E+03 0.  0.
         24    2    5    5    0    0  0.19415258993E+03 -0.76086707349E+02  0.47192442606E+03  0.52207095861E+03  0.79755919556E+02 0.  0.
          5    1    5    5  501    0 -0.42103904598E+01 -0.15905402889E+02  0.22419599256E+03  0.22484804270E+03  0.47000000000E+01 0. -1.
        -11    1    6    6    0    0  0.10394624850E+03 -0.24359913584E+02  0.15257589677E+03  0.18621931221E+03  0.00000000000E+00 0.  1.
         12    1    6    6    0    0  0.90206341426E+02 -0.51726793765E+02  0.31934852929E+03  0.33585164640E+03  0.00000000000E+00 0. -1.
         -5    1    3    3    0  503 -0.27884791262E+01 -0.48060663355E+01  0.33499816860E+02  0.34281213793E+02  0.47000000000E+01 0.  1.
         13    1    4    4    0    0 -0.22507577056E+02  0.35779552844E+02  0.65305911360E+01  0.42771673421E+02  0.00000000000E+00 0. -1.
        -14    1    4    4    0    0 -0.16464614329E+03  0.61018623730E+02 -0.98695297856E+02  0.20142588404E+03  0.00000000000E+00 0.  1.
</event>
<event>
12    1  0.1596842E-001  0.2989663E+03  0.7818608E-02  0.1086268E+00
         21   -1    0    0  501  502  0.00000000000E+00  0.00000000000E+00  0.31332073922E+03  0.31332073922E+03  0.00000000000E+00 0. -1.
         21   -1    0    0  502  503 -0.00000000000E+00 -0.00000000000E+00 -0.57537366393E+03  0.57537366393E+03  0.00000000000E+00 0. -1.
         -6    2    1    2    0  503  0.12667670247E+03 -0.20309094916E+03 -0.44905264301E+03  0.53947117077E+03  0.17913108976E+03 0.  0.
        -24    2    3    3    0    0  0.15407622598E+03 -0.16498976383E+03 -0.30204915690E+03  0.38508675076E+03  0.78083332720E+02 0.  0.
          6    2    1    2  501    0 -0.12667670247E+03  0.20309094916E+03  0.18699971830E+03  0.34922323237E+03  0.17232251974E+03 0.  0.
         24    2    5    5    0    0 -0.82595636249E+00  0.43744758151E+02  0.42468129559E+02  0.99942087827E+02  0.79187074838E+02 0.  0.
          5    1    5    5  501    0 -0.12585074610E+03  0.15934619101E+03  0.14453158874E+03  0.24928114455E+03  0.47000000000E+01 0. -1.
        -13    1    6    6    0    0  0.11027251466E+02  0.58824309611E+02  0.51299602473E+02  0.78826067325E+02  0.00000000000E+00 0.  1.
         14    1    6    6    0    0 -0.11853207829E+02 -0.15079551459E+02 -0.88314729133E+01  0.21116020503E+02  0.00000000000E+00 0. -1.
         -5    1    3    3    0  503 -0.27399523512E+02 -0.38101185326E+02 -0.14700348612E+03  0.15438442001E+03  0.47000000000E+01 0.  1.
         13    1    4    4    0    0  0.66138691647E+02 -0.10868759087E+03 -0.21178408888E+03  0.24706237926E+03  0.00000000000E+00 0. -1.
        -14    1    4    4    0    0  0.87937534332E+02 -0.56302172959E+02 -0.90265068014E+02  0.13802437150E+03  0.00000000000E+00 0.  1.
</event>
<event>
12    1  0.1596842E-001  0.2775921E+03  0.7818608E-02  0.1097175E+00
         21   -1    0    0  503  502  0.00000000000E+00  0.00000000000E+00  0.60925667624E+02  0.60925667624E+02  0.00000000000E+00 0. -1.
         21   -1    0    0  501  503 -0.00000000000E+00 -0.00000000000E+00 -0.17645848027E+04  0.17645848027E+04  0.00000000000E+00 0.  1.
          6    2    1    2  501    0 -0.22002955346E+02  0.21670737158E+03 -0.13389175805E+04  0.13671506066E+04  0.17015956836E+03 0.  0.
         24    2    3    3    0    0 -0.30424312480E+02  0.91782681510E+02 -0.95451138050E+03  0.96283969396E+03  0.81354786940E+02 0.  0.
         -6    2    1    2    0  502  0.22002955346E+02 -0.21670737158E+03 -0.36474155455E+03  0.45835986374E+03  0.17207890088E+03 0.  0.
        -24    2    5    5    0    0 -0.13694362330E+02 -0.93065788409E+02 -0.81034988494E+02  0.14679438875E+03  0.78314409131E+02 0.  0.
          5    1    3    3  501    0  0.84213571335E+01  0.12492469007E+03 -0.38440620005E+03  0.40431091264E+03  0.47000000000E+01 0. -1.
        -13    1    4    4    0    0 -0.32038966770E+02  0.10646171728E+03 -0.81481539394E+03  0.82236531958E+03  0.00000000000E+00 0.  1.
         14    1    4    4    0    0  0.16146542903E+01 -0.14679035771E+02 -0.13969598655E+03  0.14047437438E+03  0.00000000000E+00 0. -1.
         -5    1    5    5    0  502  0.35697317676E+02 -0.12364158317E+03 -0.28370656606E+03  0.31156547499E+03  0.47000000000E+01 0.  1.
         11    1    6    6    0    0 -0.17176854887E+02 -0.86865189219E+02 -0.95770617883E+02  0.13043242193E+03  0.00000000000E+00 0. -1.
        -12    1    6    6    0    0  0.34824925572E+01 -0.62005991900E+01  0.14735629389E+02  0.16361966820E+02  0.00000000000E+00 0.  1.
</event>
<event>
12    1  0.1596842E-001  0.2227315E+03  0.7818608E-02  0.1131969E+00
         21   -1    0    0  503  502  0.00000000000E+00  0.00000000000E+00  0.47214665671E+03  0.47214665671E+03  0.00000000000E+00 0. -1.
         21   -1    0    0  501  503 -0.00000000000E+00 -0.00000000000E+00 -0.13418214860E+03  0.13418214860E+03  0.00000000000E+00 0. -1.
          6    2    1    2  501    0 -0.99785424489E+02 -0.10066343424E+03  0.26946403381E+02  0.22378261659E+03  0.17106224862E+03 0.  0.
         24    2    3    3    0    0 -0.87519907386E+01 -0.10519977799E+03  0.68486968131E+01  0.13032849799E+03  0.76125042589E+02 0.  0.
         -6    2    1    2    0  502  0.99785424489E+02  0.10066343424E+03  0.31101810473E+03  0.38254618872E+03  0.17181113790E+03 0.  0.
        -24    2    5    5    0    0  0.47597449797E+02  0.12921187846E+03  0.25738706696E+03  0.30231541793E+03  0.78646569640E+02 0.  0.
          5    1    3    3  501    0 -0.91033433750E+02  0.45363437512E+01  0.20097706568E+02  0.93454118605E+02  0.47000000000E+01 0. -1.
        -11    1    4    4    0    0 -0.12507911436E+02 -0.87752184808E+01 -0.24493576284E+02  0.28868453146E+02  0.00000000000E+00 0.  1.
         12    1    4    4    0    0  0.37559206970E+01 -0.96424559508E+02  0.31342273097E+02  0.10146004484E+03  0.00000000000E+00 0. -1.
         -5    1    5    5    0  502  0.52187974691E+02 -0.28548444226E+02  0.53631037764E+02  0.80230770791E+02  0.47000000000E+01 0.  1.
         13    1    6    6    0    0  0.67224699348E+02  0.77321336781E+02  0.17961983417E+03  0.20678741294E+03  0.00000000000E+00 0. -1.
        -14    1    6    6    0    0 -0.19627249550E+02  0.51890541683E+02  0.77767232791E+02  0.95528004988E+02  0.00000000000E+00 0.  1.
</event>
<event>
12    1  0.1596842E-001  0.1945252E+03  0.7818608E-02  0.1154862E+00
         21   -1    0    0  503  502  0.00000000000E+00  0.00000000000E+00  0.10060048333E+03  0.10060048333E+03  0.00000000000E+00 0. -1.
         21   -1    0    0  501  503 -0.00000000000E+00 -0.00000000000E+00 -0.49443583586E+03  0.49443583586E+03  0.00000000000E+00 0. -1.
          6    2    1    2  501    0 -0.89520313470E+02 -0.15201840611E+02 -0.34395795771E+03  0.39421843496E+03  0.16987087835E+03 0.  0.
         24    2    3    3    0    0  0.26334091549E+01 -0.50285886292E+02 -0.16757728839E+03  0.19209117465E+03  0.79254442065E+02 0.  0.
         -6    2    1    2    0  502  0.89520313470E+02  0.15201840611E+02 -0.49877394814E+02  0.20081788423E+03  0.17203222265E+03 0.  0.
        -24    2    5    5    0    0 -0.13588381458E+02  0.36948595725E+02 -0.23140388867E+02  0.92000230261E+02  0.79866901371E+02 0.  0.
          5    1    3    3  501    0 -0.92153722624E+02  0.35084045681E+02 -0.17638066932E+03  0.20212726032E+03  0.47000000000E+01 0. -1.
        -11    1    4    4    0    0  0.54199903141E+01 -0.75324001014E+01  0.74475568146E+01  0.11898716267E+02  0.00000000000E+00 0.  1.
         12    1    4    4    0    0 -0.27865811593E+01 -0.42753486191E+02 -0.17502484521E+03  0.18019245838E+03  0.00000000000E+00 0. -1.
         -5    1    5    5    0  502  0.10310869493E+03 -0.21746755114E+02 -0.26737005948E+02  0.10881765397E+03  0.47000000000E+01 0.  1.
         13    1    6    6    0    0  0.18848420688E+02  0.16725290280E+02  0.21574962885E+02  0.33173443006E+02  0.00000000000E+00 0. -1.
        -14    1    6    6    0    0 -0.32436802146E+02  0.20223305445E+02 -0.44715351752E+02  0.58826787256E+02  0.00000000000E+00 0.  1.
</event>
<event>
12    1  0.1596842E-001  0.2366159E+03  0.7818608E-02  0.1122124E+00
         21   -1    0    0  503  502  0.00000000000E+00  0.00000000000E+00  0.29764368867E+03  0.29764368867E+03  0.00000000000E+00 0. -1.
         21   -1    0    0  501  503 -0.00000000000E+00 -0.00000000000E+00 -0.21937807667E+03  0.21937807667E+03  0.00000000000E+00 0. -1.
          6    2    1    2  501    0  0.15653960528E+03  0.40242924279E+02 -0.58861161362E+02  0.24382728003E+03  0.17280904257E+03 0.  0.
         24    2    3    3    0    0  0.12209377978E+03  0.60285081023E+02  0.16348106744E+02  0.15858218076E+03  0.79623271752E+02 0.  0.
         -6    2    1    2    0  502 -0.15653960528E+03 -0.40242924279E+02  0.13712677337E+03  0.27319448531E+03  0.17235815574E+03 0.  0.
        -24    2    5    5    0    0 -0.14055187000E+03  0.86200164020E+00  0.15702181079E+03  0.22458249987E+03  0.77626535267E+02 0.  0.
          5    1    3    3  501    0  0.34445825497E+02 -0.20042156744E+02 -0.75209268106E+02  0.85245099274E+02  0.47000000000E+01 0. -1.
        -13    1    4    4    0    0  0.74499261639E+02  0.31126393239E+02  0.48480801477E+02  0.94177388224E+02  0.00000000000E+00 0.  1.
         14    1    4    4    0    0  0.47594518145E+02  0.29158687784E+02 -0.32132694733E+02  0.64404792535E+02  0.00000000000E+00 0. -1.
         -5    1    5    5    0  502 -0.15987735282E+02 -0.41104925919E+02 -0.19895037417E+02  0.48611985437E+02  0.47000000000E+01 0.  1.
         11    1    6    6    0    0 -0.34137674124E+02 -0.48647874866E+01 -0.39593190260E+00  0.34484833100E+02  0.00000000000E+00 0. -1.
        -12    1    6    6    0    0 -0.10641419588E+03  0.57267891268E+01  0.15741774269E+03  0.19009766677E+03  0.00000000000E+00 0.  1.
</event>
<event>
12    1  0.1596842E-001  0.1748488E+03  0.7818608E-02  0.1172987E+00
         21   -1    0    0  503  502  0.00000000000E+00  0.00000000000E+00  0.36597362735E+03  0.36597362735E+03  0.00000000000E+00 0.  1.
         21   -1    0    0  501  503 -0.00000000000E+00 -0.00000000000E+00 -0.84040654988E+02  0.84040654988E+02  0.00000000000E+00 0. -1.
          6    2    1    2  501    0 -0.25981121585E+01 -0.30185208932E+02  0.12025312657E+03  0.21187050107E+03  0.17178590673E+03 0.  0.
         24    2    3    3    0    0 -0.38748124076E+02 -0.70331414251E+02  0.55804275925E+02  0.12764291941E+03  0.82040677193E+02 0.  0.
         -6    2    1    2    0  502  0.25981121585E+01  0.30185208932E+02  0.16167984580E+03  0.23814378127E+03  0.17220392270E+03 0.  0.
        -24    2    5    5    0    0 -0.52713924626E+02  0.24904079107E+02  0.15250185315E+03  0.18163150566E+03  0.79587798239E+02 0.  0.
          5    1    3    3  501    0  0.36150011918E+02  0.40146205319E+02  0.64448850642E+02  0.84227581660E+02  0.47000000000E+01 0. -1.
        -13    1    4    4    0    0 -0.28268654544E+01 -0.34303627983E+02  0.67203998654E+02  0.75505678569E+02  0.00000000000E+00 0.  1.
         14    1    4    4    0    0 -0.35921258622E+02 -0.36027786268E+02 -0.11399722729E+02  0.52137240842E+02  0.00000000000E+00 0. -1.
         -5    1    5    5    0  502  0.55312036784E+02  0.52811298249E+01  0.91779926470E+01  0.56512275608E+02  0.47000000000E+01 0.  1.
         13    1    6    6    0    0 -0.27311108670E+02  0.17588089440E+02  0.63387778009E+01  0.33097094298E+02  0.00000000000E+00 0. -1.
        -14    1    6    6    0    0 -0.25402815955E+02  0.73159896671E+01  0.14616307535E+03  0.14853441136E+03  0.00000000000E+00 0.  1.
</event>
<event>
12    1  0.1596842E-001  0.1742445E+03  0.7818608E-02  0.1173967E+00
         21   -1    0    0  501  502  0.00000000000E+00  0.00000000000E+00  0.13246113977E+04  0.13246113977E+04  0.00000000000E+00 0.  1.
         21   -1    0    0  502  503 -0.00000000000E+00 -0.00000000000E+00 -0.46031634502E+02  0.46031634502E+02  0.00000000000E+00 0.  1.
         -6    2    1    2    0  503  0.92207409217E+01 -0.72177309949E+01  0.15282723362E+03  0.23176991962E+03  0.17385055249E+03 0.  0.
        -24    2    3    3    0    0  0.29007070967E+01  0.15889348245E+02  0.17891001555E+03  0.19604483807E+03  0.78510504917E+02 0.  0.
          6    2    1    2  501    0 -0.92207409217E+01  0.72177309949E+01  0.11257525296E+04  0.11388731126E+04  0.17197700720E+03 0.  0.
         24    2    5    5    0    0 -0.12188501479E+01 -0.20661208835E+01  0.11226057060E+04  0.11253744956E+04  0.78857020923E+02 0.  0.
          5    1    5    5  501    0 -0.80018907739E+01  0.92838518783E+01  0.31468235708E+01  0.13498616975E+02  0.47000000000E+01 0. -1.
        -13    1    6    6    0    0  0.16992933829E+02  0.27370473773E+02  0.24796262961E+03  0.25004673227E+03  0.00000000000E+00 0.  1.
         14    1    6    6    0    0 -0.18211783977E+02 -0.29436594657E+02  0.87464307643E+03  0.87532776338E+03  0.00000000000E+00 0. -1.
         -5    1    3    3    0  503  0.63200338250E+01 -0.23107079240E+02 -0.26082781928E+02  0.35725081549E+02  0.47000000000E+01 0.  1.
         11    1    4    4    0    0  0.31137166774E+02  0.31730533205E+02  0.12998598817E+03  0.13737797136E+03  0.00000000000E+00 0. -1.
        -12    1    4    4    0    0 -0.28236459677E+02 -0.15841184959E+02  0.48924027375E+02  0.58666866719E+02  0.00000000000E+00 0.  1.
</event>
<event>
12    1  0.1596842E-001  0.1799893E+03  0.7818608E-02  0.1168118E+00
         21   -1    0    0  501  502  0.00000000000E+00  0.00000000000E+00  0.10890710155E+03  0.10890710155E+03  0.00000000000E+00 0. -1.
         21   -1    0    0  502  503 -0.00000000000E+00 -0.00000000000E+00 -0.33576596593E+03  0.33576596593E+03  0.00000000000E+00 0.  1.
         -6    2    1    2    0  503 -0.44607395700E+02  0.24135237665E+02 -0.19086890399E+03  0.26234913805E+03  0.17269569270E+03 0.  0.
        -24    2    3    3    0    0 -0.12519266319E+02  0.56817381097E+02 -0.39841801359E+02  0.10445978985E+03  0.77068357552E+02 0.  0.
          6    2    1    2  501    0  0.44607395700E+02 -0.24135237665E+02 -0.35989960396E+02  0.18232392943E+03  0.17138963955E+03 0.  0.
         24    2    5    5    0    0 -0.30813449621E+02  0.83643095308E+01  0.15085453235E+02  0.85497732795E+02  0.77864376080E+02 0.  0.
          5    1    5    5  501    0  0.75420845321E+02 -0.32499547196E+02 -0.51075413630E+02  0.96826196633E+02  0.47000000000E+01 0. -1.
        -11    1    6    6    0    0 -0.52704207712E+02  0.60039922837E+01 -0.79439545102E+01  0.53636627850E+02  0.00000000000E+00 0.  1.
         12    1    6    6    0    0  0.21890758090E+02  0.23603172471E+01  0.23029407745E+02  0.31861104945E+02  0.00000000000E+00 0. -1.
         -5    1    3    3    0  503 -0.32088129380E+02 -0.32682143433E+02 -0.15102710263E+03  0.15788934820E+03  0.47000000000E+01 0.  1.
         13    1    4    4    0    0 -0.40280951230E+02  0.18572699097E+02 -0.28551688660E+01  0.44448309000E+02  0.00000000000E+00 0. -1.
        -14    1    4    4    0    0  0.27761684911E+02  0.38244682000E+02 -0.36986632493E+02  0.60011480848E+02  0.00000000000E+00 0.  1.
</event>
<event>
12    1  0.1596842E-001  0.1845548E+03  0.7818608E-02  0.1163983E+00
         21   -1    0    0  501  502  0.00000000000E+00  0.00000000000E+00  0.17515854123E+03  0.17515854123E+03  0.00000000000E+00 0. -1.
         21   -1    0    0  502  503 -0.00000000000E+00 -0.00000000000E+00 -0.34905299109E+03  0.34905299109E+03  0.00000000000E+00 0. -1.
         -6    2    1    2    0  503  0.28401064116E+02  0.62240380504E+02 -0.26296176700E+03  0.32126216256E+03  0.17140595316E+03 0.  0.
        -24    2    3    3    0    0  0.52473674498E+02  0.41183545997E+02 -0.69358071687E+02  0.12497828220E+03  0.79746209543E+02 0.  0.
          6    2    1    2  501    0 -0.28401064116E+02 -0.62240380504E+02  0.89067317143E+02  0.20294936976E+03  0.16904133901E+03 0.  0.
         24    2    5    5    0    0  0.25877070293E+02  0.82950085539E+01  0.74527787709E+02  0.11264518989E+03  0.79975732142E+02 0.  0.
          5    1    5    5  501    0 -0.54278134409E+02 -0.70535389058E+02  0.14539529434E+02  0.90304179863E+02  0.47000000000E+01 0. -1.
        -11    1    6    6    0    0  0.43566870897E+02  0.52846893210E+01  0.91241775669E+01  0.44824667286E+02  0.00000000000E+00 0.  1.
         12    1    6    6    0    0 -0.17689800604E+02  0.30103192329E+01  0.65403610142E+02  0.67820522609E+02  0.00000000000E+00 0. -1.
         -5    1    3    3    0  503 -0.24072610382E+02  0.21056834507E+02 -0.19360369531E+03  0.19628388036E+03  0.47000000000E+01 0.  1.
         13    1    4    4    0    0  0.56224982493E+02  0.57899458964E+02 -0.71359501788E+02  0.10773010025E+03  0.00000000000E+00 0. -1.
        -14    1    4    4    0    0 -0.37513079955E+01 -0.16715912966E+02  0.20014301008E+01  0.17248181945E+02  0.00000000000E+00 0.  1.
</event>
<event>
12    1  0.1596842E-001  0.2125476E+03  0.7818608E-02  0.1139583E+00
         21   -1    0    0  501  502  0.00000000000E+00  0.00000000000E+00  0.92860457570E+02  0.92860457570E+02  0.00000000000E+00 0.  1.
         21   -1    0    0  502  503 -0.00000000000E+00 -0.00000000000E+00 -0.10969978964E+04  0.10969978964E+04  0.00000000000E+00 0.  1.
         -6    2    1    2    0  503 -0.94478011860E+02  0.79807222001E+02 -0.94591662104E+03  0.96948103494E+03  0.17274239708E+03 0.  0.
        -24    2    3    3    0    0 -0.13466179826E+03  0.65504079524E+02 -0.74961977885E+03  0.76854856662E+03  0.79451255906E+02 0.  0.
          6    2    1    2  501    0  0.94478011860E+02 -0.79807222001E+02 -0.58220817838E+02  0.22037731907E+03  0.17286182841E+03 0.  0.
         24    2    5    5    0    0  0.25133771652E+02  0.19145741692E+02 -0.47198705490E+02  0.98952899640E+02  0.81028961765E+02 0.  0.
          5    1    5    5  501    0  0.69344240208E+02 -0.98952963693E+02 -0.11022112347E+02  0.12142441943E+03  0.47000000000E+01 0. -1.
        -13    1    6    6    0    0  0.50523791759E+02 -0.64311389640E+01 -0.27764688389E+02  0.58007680556E+02  0.00000000000E+00 0.  1.
         14    1    6    6    0    0 -0.25390020107E+02  0.25576880656E+02 -0.19434017101E+02  0.40945219084E+02  0.00000000000E+00 0. -1.
         -5    1    3    3    0  503  0.40183786396E+02  0.14303142477E+02 -0.19629684219E+03  0.20093246832E+03  0.47000000000E+01 0.  1.
         11    1    4    4    0    0 -0.82240581236E+01  0.39606728570E+02 -0.18163831424E+03  0.18608816534E+03  0.00000000000E+00 0. -1.
        -12    1    4    4    0    0 -0.12643774013E+03  0.25897350953E+02 -0.56798146461E+03  0.58246040128E+03  0.00000000000E+00 0.  1.
</event>
<event>
12    1  0.1596842E-001  0.2917348E+03  0.7818608E-02  0.1089490E+00
         21   -1    0    0  501  502  0.00000000000E+00  0.00000000000E+00  0.23185111232E+03  0.23185111232E+03  0.00000000000E+00 0. -1.
         21   -1    0    0  502  503 -0.00000000000E+00 -0.00000000000E+00 -0.41583071227E+03  0.41583071227E+03  0.00000000000E+00 0. -1.
         -6    2    1    2    0  503  0.23323277175E+03  0.36029418765E+02  0.19404583557E+02  0.29204950358E+03  0.17094072026E+03 0.  0.
        -24    2    3    3    0    0  0.23853431409E+03  0.60862553564E+02  0.35726883532E+02  0.26149957049E+03  0.80639603996E+02 0.  0.
          6    2    1    2  501    0 -0.23323277175E+03 -0.36029418765E+02 -0.20338418351E+03  0.35563232102E+03  0.17150386823E+03 0.  0.
         24    2    5    5    0    0 -0.12615684967E+03 -0.71249037460E+02 -0.17148257041E+03  0.23839121241E+03  0.80200512113E+02 0.  0.
          5    1    5    5  501    0 -0.10707592207E+03  0.35219618696E+02 -0.31901613098E+02  0.11724110860E+03  0.47000000000E+01 0. -1.
        -11    1    6    6    0    0 -0.12735686468E+02 -0.39496850737E+02 -0.18802300789E+02  0.45560129971E+02  0.00000000000E+00 0.  1.
         12    1    6    6    0    0 -0.11342116321E+03 -0.31752186723E+02 -0.15268026962E+03  0.19283108244E+03  0.00000000000E+00 0. -1.
         -5    1    3    3    0  503 -0.53015423466E+01 -0.24833134799E+02 -0.16322299975E+02  0.30549933088E+02  0.47000000000E+01 0.  1.
         11    1    4    4    0    0  0.28066470763E+02  0.17428751104E+02 -0.21112085326E+02  0.39207247964E+02  0.00000000000E+00 0. -1.
        -12    1    4    4    0    0  0.21046784333E+03  0.43433802460E+02  0.56838968859E+02  0.22229232252E+03  0.00000000000E+00 0.  1.
</event>
<event>
12    1  0.1596842E-001  0.1743816E+03  0.7818608E-02  0.1173368E+00
         21   -1    0    0  503  502  0.00000000000E+00  0.00000000000E+00  0.50708302355E+03  0.50708302355E+03  0.00000000000E+00 0.  1.
         21   -1    0    0  501  503 -0.00000000000E+00 -0.00000000000E+00 -0.60065492550E+02  0.60065492550E+02  0.00000000000E+00 0.  1.
          6    2    1    2  501    0  0.10482214172E+02  0.22273058977E+02  0.23591347512E+03  0.29333497886E+03  0.17258121598E+03 0.  0.
         24    2    3    3    0    0  0.12616908415E+02  0.80677345582E+02  0.17133341051E+03  0.20610945302E+03  0.80361362597E+02 0.  0.
         -6    2    1    2    0  502 -0.10482214172E+02 -0.22273058977E+02  0.21110405587E+03  0.27381353723E+03  0.17263535210E+03 0.  0.
        -24    2    5    5    0    0 -0.54302581435E+02  0.31615791883E+02  0.10220281512E+03  0.14456260659E+03  0.80651120014E+02 0.  0.
          5    1    3    3  501    0 -0.21346942424E+01 -0.58404286604E+02  0.64580064616E+02  0.87225525846E+02  0.47000000000E+01 0. -1.
        -13    1    4    4    0    0 -0.16425549346E+02  0.55936630202E+02  0.15310074597E+03  0.16382473466E+03  0.00000000000E+00 0.  1.
         14    1    4    4    0    0  0.29042457761E+02  0.24740715380E+02  0.18232664536E+02  0.42284718356E+02  0.00000000000E+00 0. -1.
         -5    1    5    5    0  502  0.43820367262E+02 -0.53888850860E+02  0.10890124075E+03  0.12925093064E+03  0.47000000000E+01 0.  1.
         11    1    6    6    0    0 -0.43507930630E+01  0.46683130019E+02  0.66401410685E+02  0.81285862052E+02  0.00000000000E+00 0. -1.
        -12    1    6    6    0    0 -0.49951788372E+02 -0.15067338136E+02  0.35801404434E+02  0.63276744539E+02  0.00000000000E+00 0.  1.
</event>
<event>
12    1  0.1596842E-001  0.1771541E+03  0.7818608E-02  0.1170869E+00
         21   -1    0    0  503  502  0.00000000000E+00  0.00000000000E+00  0.17030864197E+03  0.17030864197E+03  0.00000000000E+00 0. -1.
         21   -1    0    0  501  503 -0.00000000000E+00 -0.00000000000E+00 -0.26987078202E+03  0.26987078202E+03  0.00000000000E+00 0.  1.
          6    2    1    2  501    0 -0.30651074682E+02  0.36277230609E+02 -0.17469518072E+03  0.24880105444E+03  0.17066936656E+03 0.  0.
         24    2    3    3    0    0 -0.70721032241E+02  0.16936732065E+02 -0.17302291741E+03  0.20402893312E+03  0.80015987812E+02 0.  0.
         -6    2    1    2    0  502  0.30651074682E+02 -0.36277230609E+02  0.75133040673E+02  0.19137836955E+03  0.16948504563E+03 0.  0.
        -24    2    5    5    0    0  0.52498208760E+02 -0.79554653945E+02  0.71002187475E+02  0.14249701742E+03  0.78607152736E+02 0.  0.
          5    1    3    3  501    0  0.40069957560E+02  0.19340498545E+02 -0.16722633070E+01  0.44772121319E+02  0.47000000000E+01 0. -1.
        -13    1    4    4    0    0 -0.34572729310E+02  0.38433798123E+02 -0.42580723092E+02  0.66974237056E+02  0.00000000000E+00 0.  1.
         14    1    4    4    0    0 -0.36148302932E+02 -0.21497066059E+02 -0.13044219432E+03  0.13705469607E+03  0.00000000000E+00 0. -1.
         -5    1    5    5    0  502 -0.21847134078E+02  0.43277423335E+02  0.41308531981E+01  0.48881352131E+02  0.47000000000E+01 0.  1.
         11    1    6    6    0    0  0.34074643316E+02 -0.49663683404E+02  0.85437470942E+02  0.10453288577E+03  0.00000000000E+00 0. -1.
        -12    1    6    6    0    0  0.18423565444E+02 -0.29890970540E+02 -0.14435283467E+02  0.37964131654E+02  0.00000000000E+00 0.  1.
</event>
<event>
12    1  0.1596842E-001  0.2319834E+03  0.7818608E-02  0.1125995E+00
         21   -1    0    0  503  502  0.00000000000E+00  0.00000000000E+00  0.37674119024E+03  0.37674119024E+03  0.00000000000E+00 0.  1.
         21   -1    0    0  501  503 -0.00000000000E+00 -0.00000000000E+00 -0.14406663994E+03  0.14406663994E+03  0.00000000000E+00 0.  1.
          6    2    1    2  501    0  0.11099915497E+03 -0.10886587833E+03  0.15764870274E+03  0.27699405629E+03  0.16643317541E+03 0.  0.
         24    2    3    3    0    0  0.13465104499E+03 -0.12077019742E+03  0.15444663751E+03  0.24991144312E+03  0.76717801484E+02 0.  0.
         -6    2    1    2    0  502 -0.11099915497E+03  0.10886587833E+03  0.75025847564E+02  0.24381377389E+03  0.17217342032E+03 0.  0.
        -24    2    5    5    0    0 -0.14870439241E+02  0.10758962011E+01 -0.15556303681E+01  0.80271048591E+02  0.78858948384E+02 0.  0.
          5    1    3    3  501    0 -0.23651890015E+02  0.11904319091E+02  0.32020652296E+01  0.27082613169E+02  0.47000000000E+01 0. -1.
        -11    1    4    4    0    0  0.41600276897E+02 -0.85244813318E+02  0.93235490438E+02  0.13300420261E+03  0.00000000000E+00 0.  1.
         12    1    4    4    0    0  0.93050768090E+02 -0.35525384104E+02  0.61211147071E+02  0.11690724051E+03  0.00000000000E+00 0. -1.
         -5    1    5    5    0  502 -0.96128715731E+02  0.10778998213E+03  0.76581477933E+02  0.16354272530E+03  0.47000000000E+01 0.  1.
         13    1    6    6    0    0 -0.27473116405E+02 -0.31276429315E+02 -0.13164994757E+02  0.43661244172E+02  0.00000000000E+00 0. -1.
        -14    1    6    6    0    0  0.12602677165E+02  0.32352325517E+02  0.11609364389E+02  0.36609804418E+02  0.00000000000E+00 0.  1.
</event>
<event>
12    1  0.1596842E-001  0.1731515E+03  0.7818608E-02  0.1174648E+00
         21   -1    0    0  501  502  0.00000000000E+00  0.00000000000E+00  0.22642841958E+03  0.22642841958E+03  0.00000000000E+00 0. -1.
         21   -1    0    0  502  503 -0.00000000000E+00 -0.00000000000E+00 -0.22096044385E+03  0.22096044385E+03  0.00000000000E+00 0. -1.
         -6    2    1    2    0  503  0.19147167363E+01  0.23144565924E+02 -0.13899044266E+03  0.22189016050E+03  0.17139884218E+03 0.  0.
        -24    2    3    3    0    0 -0.43173684713E+02  0.64799130027E+02 -0.88876760269E+02  0.14250793441E+03  0.79665165220E+02 0.  0.
          6    2    1    2  501    0 -0.19147167363E+01 -0.23144565924E+02  0.14445841839E+03  0.22549870293E+03  0.17158698467E+03 0.  0.
         24    2    5    5    0    0  0.50392011905E+02  0.18858291324E+02  0.44845656089E+02  0.10531123981E+03  0.78640538818E+02 0.  0.
          5    1    5    5  501    0 -0.52306728641E+02 -0.42002857248E+02  0.99612762297E+02  0.12018746312E+03  0.47000000000E+01 0. -1.
        -11    1    6    6    0    0  0.42689636331E+02 -0.12027333479E+02  0.56130912671E+02  0.71538389400E+02  0.00000000000E+00 0.  1.
         12    1    6    6    0    0  0.77023755738E+01  0.30885624803E+02 -0.11285256581E+02  0.33772850414E+02  0.00000000000E+00 0. -1.
         -5    1    3    3    0  503  0.45088401449E+02 -0.41654564103E+02 -0.50113682390E+02  0.79382226087E+02  0.47000000000E+01 0.  1.
         11    1    4    4    0    0  0.19010013773E+02  0.29510066627E+02 -0.50090528376E+02  0.61166050133E+02  0.00000000000E+00 0. -1.
        -12    1    4    4    0    0 -0.62183698485E+02  0.35289063401E+02 -0.38786231893E+02  0.81341884275E+02  0.00000000000E+00 0.  1.
</event>
<event>
12    1  0.1596842E-001  0.2267257E+03  0.7818608E-02  0.1129621E+00
         21   -1    0    0  503  502  0.00000000000E+00  0.00000000000E+00  0.14848532875E+03  0.14848532875E+03  0.00000000000E+00 0.  1.
         21   -1    0    0  501  503 -0.00000000000E+00 -0.00000000000E+00 -0.48636832380E+03  0.48636832380E+03  0.00000000000E+00 0.  1.
          6    2    1    2  501    0 -0.89114128042E+02 -0.11082459622E+03 -0.34171331366E+03  0.40809559323E+03  0.17190289566E+03 0.  0.
         24    2    3    3    0    0 -0.12026482040E+03 -0.12174498178E+03 -0.30668416815E+03  0.35973495334E+03  0.77901155629E+02 0.  0.
         -6    2    1    2    0  502  0.89114128042E+02  0.11082459622E+03  0.38303186069E+01  0.22675805933E+03  0.17658178611E+03 0.  0.
        -24    2    5    5    0    0  0.71724774537E+01  0.11463558969E+03  0.27446602719E+02  0.14126667586E+03  0.77525446463E+02 0.  0.
          5    1    3    3  501    0  0.31150692354E+02  0.10920385566E+02 -0.35029145508E+02  0.48360639885E+02  0.47000000000E+01 0. -1.
        -13    1    4    4    0    0 -0.32022228415E+02 -0.80770096908E+02 -0.10887955507E+03  0.13929820236E+03  0.00000000000E+00 0.  1.
         14    1    4    4    0    0 -0.88242591981E+02 -0.40974884874E+02 -0.19780461308E+03  0.22043675099E+03  0.00000000000E+00 0. -1.
         -5    1    5    5    0  502  0.81941650588E+02 -0.38109934783E+01 -0.23616284112E+02  0.85491383470E+02  0.47000000000E+01 0.  1.
         11    1    6    6    0    0 -0.43482762971E+01 -0.11166170974E+02  0.48810344541E+01  0.12938909472E+02  0.00000000000E+00 0. -1.
        -12    1    6    6    0    0  0.11520753751E+02  0.12580176067E+03  0.22565568265E+02  0.12832776639E+03  0.00000000000E+00 0.  1.
</event>
<event>
12    1  0.1596842E-001  0.2503401E+03  0.7818608E-02  0.1113351E+00
         21   -1    0    0  503  502  0.00000000000E+00  0.00000000000E+00  0.65350879242E+02  0.65350879242E+02  0.00000000000E+00 0.  1.
         21   -1    0    0  501  503 -0.00000000000E+00 -0.00000000000E+00 -0.11800629539E+04  0.11800629539E+04  0.00000000000E+00 0.  1.
          6    2    1    2  501    0 -0.18199666499E+03  0.10252014031E+02 -0.82921410930E+03  0.86570436704E+03  0.16917482730E+03 0.  0.
         24    2    3    3    0    0 -0.14176322796E+03  0.51039128019E+02 -0.43609170294E+03  0.46840141651E+03  0.80759570458E+02 0.  0.
         -6    2    1    2    0  502  0.18199666499E+03 -0.10252014031E+02 -0.28549796539E+03  0.37970946613E+03  0.17158758862E+03 0.  0.
        -24    2    5    5    0    0  0.23351459900E+02  0.16300701474E+02 -0.62118927875E+02  0.10440303286E+03  0.78931796651E+02 0.  0.
          5    1    3    3  501    0 -0.40233437036E+02 -0.40787113989E+02 -0.39312240635E+03  0.39730295053E+03  0.47000000000E+01 0. -1.
        -11    1    4    4    0    0 -0.12404605077E+03  0.55311177039E+02 -0.42690989137E+03  0.44799420126E+03  0.00000000000E+00 0.  1.
         12    1    4    4    0    0 -0.17717177185E+02 -0.42720490197E+01 -0.91818115756E+01  0.20407215245E+02  0.00000000000E+00 0. -1.
         -5    1    5    5    0  502  0.15864520509E+03 -0.26552715505E+02 -0.22337903751E+03  0.27530643327E+03  0.47000000000E+01 0.  1.
         13    1    6    6    0    0  0.28993779220E+02 -0.26648553493E+02 -0.38459653367E+02  0.55044796065E+02  0.00000000000E+00 0. -1.
        -14    1    6    6    0    0 -0.56423193193E+01  0.42949254967E+02 -0.23659274507E+02  0.49358236798E+02  0.00000000000E+00 0.  1.
</event>
<event>
12    1  0.1596842E-001  0.1787555E+03  0.7818608E-02  0.1170766E+00
         21   -1    0    0  503  502  0.00000000000E+00  0.00000000000E+00  0.20667457021E+03  0.20667457021E+03  0.00000000000E+00 0. -1.
         21   -1    0    0  501  503 -0.00000000000E+00 -0.00000000000E+00 -0.17721754394E+03  0.17721754394E+03  0.00000000000E+00 0. -1.
          6    2    1    2  501    0 -0.26002531940E+02  0.58755806929E+00  0.91615855220E+02  0.19463762989E+03  0.16974647316E+03 0.  0.
         24    2    3    3    0    0 -0.59928769488E+02  0.48746745440E+02  0.59119441601E+02  0.12719577479E+03  0.81950925221E+02 0.  0.
         -6    2    1    2    0  502  0.26002531940E+02 -0.58755806929E+00 -0.62158828950E+02  0.18925448426E+03  0.17685322419E+03 0.  0.
        -24    2    5    5    0    0 -0.11068306977E+02  0.25988209717E+02 -0.98303888164E+02  0.13086720965E+03  0.81637477115E+02 0.  0.
          5    1    3    3  501    0  0.33926237549E+02 -0.48159187371E+02  0.32496413619E+02  0.67441855108E+02  0.47000000000E+01 0. -1.
        -13    1    4    4    0    0 -0.52721195263E+00  0.24022811865E+02 -0.15556213322E+02  0.28624626028E+02  0.00000000000E+00 0.  1.
         14    1    4    4    0    0 -0.59401557536E+02  0.24723933575E+02  0.74675654923E+02  0.98571148757E+02  0.00000000000E+00 0. -1.
         -5    1    5    5    0  502  0.37070838917E+02 -0.26575767786E+02  0.36145059214E+02  0.58387274615E+02  0.47000000000E+01 0.  1.
         13    1    6    6    0    0 -0.14777140505E+02  0.46599917804E+02 -0.25553614440E+02  0.55162518360E+02  0.00000000000E+00 0. -1.
        -14    1    6    6    0    0  0.37088335280E+01 -0.20611708087E+02 -0.72750273724E+02  0.75704691290E+02  0.00000000000E+00 0.  1.
</event>
<event>
12    1  0.1596842E-001  0.1861414E+03  0.7818608E-02  0.1162343E+00
         21   -1    0    0  501  502  0.00000000000E+00  0.00000000000E+00  0.21267186661E+03  0.21267186661E+03  0.00000000000E+00 0.  1.
         21   -1    0    0  502  503 -0.00000000000E+00 -0.00000000000E+00 -0.75718945167E+03  0.75718945167E+03  0.00000000000E+00 0.  1.
         -6    2    1    2    0  503 -0.40039524364E+02  0.56751816541E+02 -0.70210501636E+03  0.72597116601E+03  0.17105188594E+03 0.  0.
        -24    2    3    3    0    0 -0.58171150370E+02 -0.90250953493E+01 -0.26274454752E+03  0.28131953880E+03  0.81490187001E+02 0.  0.
          6    2    1    2  501    0  0.40039524364E+02 -0.56751816541E+02  0.15758743130E+03  0.24389015227E+03  0.17269822141E+03 0.  0.
         24    2    5    5    0    0  0.18774961535E+02 -0.10225056514E+03  0.85678833522E+02  0.15605363258E+03  0.78766721887E+02 0.  0.
          5    1    5    5  501    0  0.21264562830E+02  0.45498748598E+02  0.71908597781E+02  0.87836519689E+02  0.47000000000E+01 0. -1.
        -13    1    6    6    0    0  0.44184597043E+02 -0.79295368714E+02  0.40591677184E+02  0.99437007054E+02  0.00000000000E+00 0.  1.
         14    1    6    6    0    0 -0.25409635509E+02 -0.22955196425E+02  0.45087156338E+02  0.56616625528E+02  0.00000000000E+00 0. -1.
         -5    1    3    3    0  503  0.18131626006E+02  0.65776911890E+02 -0.43936046884E+03  0.44465162720E+03  0.47000000000E+01 0.  1.
         11    1    4    4    0    0 -0.29818275518E+02 -0.42133934925E+02 -0.18631868266E+03  0.19333662233E+03  0.00000000000E+00 0. -1.
        -12    1    4    4    0    0 -0.28352874853E+02  0.33108839575E+02 -0.76425864868E+02  0.87982916474E+02  0.00000000000E+00 0.  1.
</event>
<event>
12    1  0.1596842E-001  0.2040554E+03  0.7818608E-02  0.1146551E+00
         21   -1    0    0  501  502  0.00000000000E+00  0.00000000000E+00  0.11990255211E+03  0.11990255211E+03  0.00000000000E+00 0.  1.
         21   -1    0    0  502  503 -0.00000000000E+00 -0.00000000000E+00 -0.37012556841E+03  0.37012556841E+03  0.00000000000E+00 0.  1.
         -6    2    1    2    0  503  0.78751207956E+01  0.10897922967E+03 -0.62441842732E+02  0.21339539542E+03  0.17233723056E+03 0.  0.
        -24    2    3    3    0    0  0.57511018502E+01  0.28489925346E+02 -0.94008752542E+02  0.12678362162E+03  0.79948046491E+02 0.  0.
          6    2    1    2  501    0 -0.78751207956E+01 -0.10897922967E+03 -0.18778117357E+03  0.27663272510E+03  0.17124662164E+03 0.  0.
         24    2    5    5    0    0 -0.34858136660E+02 -0.44860416328E+02 -0.28379867584E+02  0.10264947384E+03  0.80647076515E+02 0.  0.
          5    1    5    5  501    0  0.26983015864E+02 -0.64118813338E+02 -0.15940130599E+03  0.17398325126E+03  0.47000000000E+01 0. -1.
        -13    1    6    6    0    0  0.36919642150E+01 -0.57850600041E+02 -0.16587647465E+02  0.60294880158E+02  0.00000000000E+00 0.  1.
         14    1    6    6    0    0 -0.38550100875E+02  0.12990183713E+02 -0.11792220119E+02  0.42354593679E+02  0.00000000000E+00 0. -1.
         -5    1    3    3    0  503  0.21240189454E+01  0.80489304319E+02  0.31566909810E+02  0.86611773802E+02  0.47000000000E+01 0.  1.
         13    1    4    4    0    0 -0.84144655483E+01 -0.24216390389E+02 -0.12077739032E+02  0.28339170314E+02  0.00000000000E+00 0. -1.
        -14    1    4    4    0    0  0.14165567398E+02  0.52706315735E+02 -0.81931013509E+02  0.98444451305E+02  0.00000000000E+00 0.  1.
</event>
<event>
12    1  0.1596842E-001  0.2476882E+03  0.7818608E-02  0.1114899E+00
         21   -1    0    0  501  502  0.00000000000E+00  0.00000000000E+00  0.76234072996E+03  0.76234072996E+03  0.00000000000E+00 0. -1.
         21   -1    0    0  502  503 -0.00000000000E+00 -0.00000000000E+00 -0.11012193219E+03  0.11012193219E+03  0.00000000000E+00 0.  1.
         -6    2    1    2    0  503  0.79000554246E+01  0.17922646828E+03  0.55378581260E+03  0.60665323557E+03  0.17077729413E+03 0.  0.
        -24    2    3    3    0    0 -0.17640387705E+01  0.19326414018E+03  0.55019135773E+03  0.58861269637E+03  0.80001478106E+02 0.  0.
          6    2    1    2  501    0 -0.79000554246E+01 -0.17922646828E+03  0.98432985180E+02  0.26580942658E+03  0.16964981838E+03 0.  0.
         24    2    5    5    0    0 -0.48799606221E+01 -0.12867101821E+03  0.13518555411E+03  0.20305740805E+03  0.79856946994E+02 0.  0.
          5    1    5    5  501    0 -0.30200948025E+01 -0.50555450078E+02 -0.36752568933E+02  0.62752018520E+02  0.47000000000E+01 0. -1.
        -11    1    6    6    0    0 -0.39905332714E+02 -0.86690446428E+02  0.72302493899E+02  0.11973019546E+03  0.00000000000E+00 0.  1.
         12    1    6    6    0    0  0.35025372092E+02 -0.41980571778E+02  0.62883060214E+02  0.83327212595E+02  0.00000000000E+00 0. -1.
         -5    1    3    3    0  503  0.96640941952E+01 -0.14037671897E+02  0.35944548692E+01  0.18040539202E+02  0.47000000000E+01 0.  1.
         13    1    4    4    0    0  0.34924213772E+02  0.11365429876E+03  0.26976073889E+03  0.29480138497E+03  0.00000000000E+00 0. -1.
        -14    1    4    4    0    0 -0.36688252543E+02  0.79609841425E+02  0.28043061884E+03  0.29381131140E+03  0.00000000000E+00 0.  1.
</event>
<event>
12    1  0.1596842E-001  0.3624279E+03  0.7818608E-02  0.1057686E+00
         21   -1    0    0  503  502  0.00000000000E+00  0.00000000000E+00  0.19633286040E+03  0.19633286040E+03  0.00000000000E+00 0. -1.
         21   -1    0    0  501  503 -0.00000000000E+00 -0.00000000000E+00 -0.90599918543E+03  0.90599918543E+03  0.00000000000E+00 0.  1.
          6    2    1    2  501    0  0.19354368145E+03  0.25180020723E+03 -0.63715594074E+03  0.73272180387E+03  0.17335238118E+03 0.  0.
         24    2    3    3    0    0  0.16613327450E+03  0.11135031976E+03 -0.46074860694E+03  0.50552334719E+03  0.57143828650E+02 0.  0.
         -6    2    1    2    0  502 -0.19354368145E+03 -0.25180020723E+03 -0.72510384290E+02  0.36961024195E+03  0.17461808078E+03 0.  0.
        -24    2    5    5    0    0 -0.90506573283E+02 -0.44846385485E+02 -0.44385280437E+01  0.12856585266E+03  0.79415614597E+02 0.  0.
          5    1    3    3  501    0  0.27410406952E+02  0.14044988747E+03 -0.17640733380E+03  0.22719845668E+03  0.47000000000E+01 0. -1.
        -11    1    4    4    0    0  0.16511647731E+03  0.11396251240E+03 -0.42837475195E+03  0.47302836428E+03  0.00000000000E+00 0.  1.
         12    1    4    4    0    0  0.10167971839E+01 -0.26121926426E+01 -0.32373854995E+02  0.32494982908E+02  0.00000000000E+00 0. -1.
         -5    1    5    5    0  502 -0.10303710817E+03 -0.20695382174E+03 -0.68071856246E+02  0.24104438928E+03  0.47000000000E+01 0.  1.
         13    1    6    6    0    0 -0.22425277033E+02 -0.45670023373E+02  0.22125082730E+02  0.55481198353E+02  0.00000000000E+00 0. -1.
        -14    1    6    6    0    0 -0.68081296250E+02  0.82363788864E+00 -0.26563610774E+02  0.73084654311E+02  0.00000000000E+00 0.  1.
</event>
<event>
12    1  0.1596842E-001  0.2226977E+03  0.7818608E-02  0.1131952E+00
         21   -1    0    0  503  502  0.00000000000E+00  0.00000000000E+00  0.21637068713E+03  0.21637068713E+03  0.00000000000E+00 0. -1.
         21   -1    0    0  501  503 -0.00000000000E+00 -0.00000000000E+00 -0.28368705859E+03  0.28368705859E+03  0.00000000000E+00 0.  1.
          6    2    1    2  501    0  0.99937129182E+02 -0.99189736197E+02  0.76289764599E+02  0.23507283143E+03  0.17208449767E+03 0.  0.
         24    2    3    3    0    0  0.21251387564E+01 -0.30341855256E+02 -0.11109424231E+02  0.86857027994E+02  0.80595158726E+02 0.  0.
         -6    2    1    2    0  502 -0.99937129182E+02  0.99189736197E+02 -0.14360613606E+03  0.26498491429E+03  0.17253477601E+03 0.  0.
        -24    2    5    5    0    0 -0.92462612620E+02 -0.81985433601E+00 -0.85549948338E+02  0.14900906539E+03  0.79592091396E+02 0.  0.
          5    1    3    3  501    0  0.97811990425E+02 -0.68847880941E+02  0.87399188830E+02  0.14821580344E+03  0.47000000000E+01 0. -1.
        -11    1    4    4    0    0  0.17325997038E+02  0.23965722848E+02 -0.64658231702E+01  0.30271321647E+02  0.00000000000E+00 0.  1.
         12    1    4    4    0    0 -0.15200858282E+02 -0.54307578104E+02 -0.46436010610E+01  0.56585706347E+02  0.00000000000E+00 0. -1.
         -5    1    5    5    0  502 -0.74745165620E+01  0.10000959053E+03 -0.58056187717E+02  0.11597584890E+03  0.47000000000E+01 0.  1.
         13    1    6    6    0    0 -0.10621762608E+03  0.53813034792E+01 -0.69886969107E+02  0.12726087760E+03  0.00000000000E+00 0. -1.
        -14    1    6    6    0    0  0.13755013459E+02 -0.62011578152E+01 -0.15662979231E+02  0.21748187784E+02  0.00000000000E+00 0.  1.
</event>
<event>
12    1  0.1596842E-001  0.1743286E+03  0.7818608E-02  0.1173798E+00
         21   -1    0    0  501  502  0.00000000000E+00  0.00000000000E+00  0.31084429566E+02  0.31084429566E+02  0.00000000000E+00 0. -1.
         21   -1    0    0  502  503 -0.00000000000E+00 -0.00000000000E+00 -0.16481210112E+04  0.16481210112E+04  0.00000000000E+00 0. -1.
         -6    2    1    2    0  503  0.20118986943E+01  0.25749877425E+02 -0.13453400071E+04  0.13563904723E+04  0.17084576342E+03 0.  0.
        -24    2    3    3    0    0  0.36814742541E+02 -0.41261386279E+02 -0.75329273378E+03  0.75952883743E+03  0.79851642805E+02 0.  0.
          6    2    1    2  501    0 -0.20118986943E+01 -0.25749877425E+02 -0.27169657455E+03  0.32281496842E+03  0.17240467305E+03 0.  0.
         24    2    5    5    0    0 -0.27858233170E+02 -0.78166115637E+02 -0.18586932576E+03  0.21887314975E+03  0.80448906975E+02 0.  0.
          5    1    5    5  501    0  0.25846334476E+02  0.52416238212E+02 -0.85827248793E+02  0.10394181868E+03  0.47000000000E+01 0. -1.
        -13    1    6    6    0    0 -0.48664547284E+02 -0.59848484262E+02 -0.17059282635E+03  0.18722177125E+03  0.00000000000E+00 0.  1.
         14    1    6    6    0    0  0.20806314114E+02 -0.18317631374E+02 -0.15276499411E+02  0.31651378492E+02  0.00000000000E+00 0. -1.
         -5    1    3    3    0  503 -0.34802843847E+02  0.67011263704E+02 -0.59204727330E+03  0.59686163491E+03  0.47000000000E+01 0.  1.
         13    1    4    4    0    0  0.49731707503E+02 -0.18818442251E+02 -0.67444610403E+03  0.67653892995E+03  0.00000000000E+00 0. -1.
        -14    1    4    4    0    0 -0.12916964961E+02 -0.22442944028E+02 -0.78846629746E+02  0.82989907475E+02  0.00000000000E+00 0.  1.
</event>
<event>
12    1  0.1596842E-001  0.1923047E+03  0.7818608E-02  0.1158276E+00
         21   -1    0    0  501  502  0.00000000000E+00  0.00000000000E+00  0.91862720875E+03  0.91862720875E+03  0.00000000000E+00 0.  1.
         21   -1    0    0  502  503 -0.00000000000E+00 -0.00000000000E+00 -0.42743528145E+02  0.42743528145E+02  0.00000000000E+00 0.  1.
         -6    2    1    2    0  503 -0.24636139733E+02 -0.68320963430E+02  0.57987082723E+03  0.60837681115E+03  0.16910787874E+03 0.  0.
        -24    2    3    3    0    0  0.41214759509E+02 -0.36671546731E+02  0.44069308410E+03  0.45111727825E+03  0.79075569013E+02 0.  0.
          6    2    1    2  501    0  0.24636139733E+02  0.68320963430E+02  0.29601285337E+03  0.35299392574E+03  0.17806293500E+03 0.  0.
         24    2    5    5    0    0  0.65836646659E+02  0.31702895649E+02  0.73021608758E+02  0.12324286517E+03  0.67209454940E+02 0.  0.
          5    1    5    5  501    0 -0.41200506926E+02  0.36618067781E+02  0.22299124461E+03  0.22975106057E+03  0.47000000000E+01 0. -1.
        -11    1    6    6    0    0 -0.92532069797E+01  0.17796054068E+02  0.28484049571E+02  0.34837658643E+02  0.00000000000E+00 0.  1.
         12    1    6    6    0    0  0.75089853639E+02  0.13906841581E+02  0.44537559188E+02  0.88405206524E+02  0.00000000000E+00 0. -1.
         -5    1    3    3    0  503 -0.65850899241E+02 -0.31649416700E+02  0.13917774312E+03  0.15725953290E+03  0.47000000000E+01 0.  1.
         11    1    4    4    0    0  0.27055726997E+02  0.21549130768E+02  0.12048760335E+03  0.12535405841E+03  0.00000000000E+00 0. -1.
        -12    1    4    4    0    0  0.14159032512E+02 -0.58220677498E+02  0.32020548076E+03  0.32576321983E+03  0.00000000000E+00 0.  1.
</event>
<event>
12    1  0.1596842E-001  0.1858185E+03  0.7818608E-02  0.1162381E+00
         21   -1    0    0  503  502  0.00000000000E+00  0.00000000000E+00  0.74455543829E+03  0.74455543829E+03  0.00000000000E+00 0. -1.
         21   -1    0    0  501  503 -0.00000000000E+00 -0.00000000000E+00 -0.21906957171E+03  0.21906957171E+03  0.00000000000E+00 0. -1.
          6    2    1    2  501    0 -0.49422346993E+02  0.47962060221E+02 -0.16510731949E+03  0.24857383921E+03  0.17258504857E+03 0.  0.
         24    2    3    3    0    0  0.37894596151E+02  0.13498276877E+02 -0.65266229143E+02  0.11145223536E+03  0.80893239546E+02 0.  0.
         -6    2    1    2    0  502  0.49422346993E+02 -0.47962060221E+02  0.69059318606E+03  0.71505117079E+03  0.17215196950E+03 0.  0.
        -24    2    5    5    0    0  0.26910018051E+02  0.17879251198E+01  0.62066979678E+03  0.62620728318E+03  0.78595286930E+02 0.  0.
          5    1    3    3  501    0 -0.87316943144E+02  0.34463783344E+02 -0.99841090343E+02  0.13712160385E+03  0.47000000000E+01 0. -1.
        -13    1    4    4    0    0 -0.26002224293E+01 -0.11349619278E+02  0.14507596287E+02  0.18602294602E+02  0.00000000000E+00 0.  1.
         14    1    4    4    0    0  0.40494818581E+02  0.24847896155E+02 -0.79773825429E+02  0.92849940758E+02  0.00000000000E+00 0. -1.
         -5    1    5    5    0  502  0.22512328943E+02 -0.49749985341E+02  0.69923389283E+02  0.88843887605E+02  0.47000000000E+01 0.  1.
         11    1    6    6    0    0 -0.24582671302E+02 -0.14945662515E+02  0.19611520680E+03  0.19821416421E+03  0.00000000000E+00 0. -1.
        -12    1    6    6    0    0  0.51492689353E+02  0.16733587635E+02  0.42455458998E+03  0.42799311897E+03  0.00000000000E+00 0.  1.
</event>
<event>
12    1  0.1596842E-001  0.1776655E+03  0.7818608E-02  0.1170390E+00
         21   -1    0    0  503  502  0.00000000000E+00  0.00000000000E+00  0.45663805187E+03  0.45663805187E+03  0.00000000000E+00 0.  1.
         21   -1    0    0  501  503 -0.00000000000E+00 -0.00000000000E+00 -0.38011707229E+03  0.38011707229E+03  0.00000000000E+00 0. -1.
          6    2    1    2  501    0  0.19303315284E+02 -0.36677256995E+02 -0.34048753581E+03  0.38347693528E+03  0.17147874121E+03 0.  0.
         24    2    3    3    0    0  0.64138789356E+02 -0.68142439993E+01 -0.12344626055E+03  0.15980077551E+03  0.78339583798E+02 0.  0.
         -6    2    1    2    0  502 -0.19303315284E+02  0.36677256995E+02  0.41700851538E+03  0.45327818888E+03  0.17276335101E+03 0.  0.
        -24    2    5    5    0    0 -0.59517579265E+02  0.74457899353E+02  0.28664176575E+03  0.31163729304E+03  0.76602738365E+02 0.  0.
          5    1    3    3  501    0 -0.44835474072E+02 -0.29863012996E+02 -0.21704127526E+03  0.22367615977E+03  0.47000000000E+01 0. -1.
        -11    1    4    4    0    0  0.12324143775E+02  0.30407494455E+02 -0.67059453153E+02  0.74655679596E+02  0.00000000000E+00 0.  1.
         12    1    4    4    0    0  0.51814645581E+02 -0.37221738454E+02 -0.56386807395E+02  0.85145095916E+02  0.00000000000E+00 0. -1.
         -5    1    5    5    0  502  0.40214263980E+02 -0.37780642357E+02  0.13036674964E+03  0.14164089584E+03  0.47000000000E+01 0.  1.
         13    1    6    6    0    0  0.14490264877E+02 -0.33755911461E+01  0.33767802236E+02  0.36900228450E+02  0.00000000000E+00 0. -1.
        -14    1    6    6    0    0 -0.74007844142E+02  0.77833490499E+02  0.25287396351E+03  0.27473706459E+03  0.00000000000E+00 0.  1.
</event>
<event>
12    1  0.1596842E-001  0.2182626E+03  0.7818608E-02  0.1135332E+00
         21   -1    0    0  501  502  0.00000000000E+00  0.00000000000E+00  0.84154943853E+03  0.84154943853E+03  0.00000000000E+00 0. -1.
         21   -1    0    0  502  503 -0.00000000000E+00 -0.00000000000E+00 -0.11457360753E+03  0.11457360753E+03  0.00000000000E+00 0. -1.
         -6    2    1    2    0  503 -0.56282455251E+02 -0.12313642622E+03  0.23180413050E+02  0.21949003641E+03  0.17119652538E+03 0.  0.
        -24    2    3    3    0    0 -0.40861177284E+02 -0.60952478060E+01 -0.20099098987E+02  0.93666114118E+02  0.81624624342E+02 0.  0.
          6    2    1    2  501    0  0.56282455251E+02  0.12313642622E+03  0.70379541794E+03  0.73663300965E+03  0.17020548276E+03 0.  0.
         24    2    5    5    0    0 -0.98654059612E+01  0.93286060047E+02  0.27073523969E+03  0.29750911838E+03  0.80090512998E+02 0.  0.
          5    1    5    5  501    0  0.66147861213E+02  0.29850366173E+02  0.43306017825E+03  0.43912389128E+03  0.47000000000E+01 0. -1.
        -11    1    6    6    0    0  0.49816569587E+01 -0.60270453477E+01  0.93321150290E+02  0.93648167484E+02  0.00000000000E+00 0.  1.
         12    1    6    6    0    0 -0.14847062920E+02  0.99313105395E+02  0.17741408940E+03  0.20386095089E+03  0.00000000000E+00 0. -1.
         -5    1    3    3    0  503 -0.15421277967E+02 -0.11704117841E+03  0.43279512038E+02  0.12582392229E+03  0.47000000000E+01 0.  1.
         11    1    4    4    0    0 -0.31064922938E+01 -0.33854381538E+02 -0.30490318944E+02  0.45666497490E+02  0.00000000000E+00 0. -1.
        -12    1    4    4    0    0 -0.37754684990E+02  0.27759133732E+02  0.10391219956E+02  0.47999616628E+02  0.00000000000E+00 0.  1.
</event>
<event>
12    1  0.1596842E-001  0.2259996E+03  0.7818608E-02  0.1129554E+00
         21   -1    0    0  501  502  0.00000000000E+00  0.00000000000E+00  0.83660122717E+03  0.83660122717E+03  0.00000000000E+00 0. -1.
         21   -1    0    0  502  503 -0.00000000000E+00 -0.00000000000E+00 -0.13123913636E+03  0.13123913636E+03  0.00000000000E+00 0. -1.
         -6    2    1    2    0  503 -0.13058925245E+03  0.66770766428E+02 -0.13289928304E+01  0.22600350679E+03  0.17194164927E+03 0.  0.
        -24    2    3    3    0    0 -0.62045319431E+02  0.45747108657E+02 -0.65710300219E+02  0.12952911806E+03  0.80731216122E+02 0.  0.
          6    2    1    2  501    0  0.13058925245E+03 -0.66770766428E+02  0.70669108365E+03  0.74183685674E+03  0.17145770967E+03 0.  0.
         24    2    5    5    0    0  0.13919347570E+02 -0.75436859680E+02  0.32600153905E+03  0.34354853498E+03  0.76577571093E+02 0.  0.
          5    1    5    5  501    0  0.11666990488E+03  0.86660932525E+01  0.38068954460E+03  0.39828832176E+03  0.47000000000E+01 0. -1.
        -11    1    6    6    0    0 -0.19589008793E+02 -0.55880439493E+02  0.26280026201E+03  0.26938880915E+03  0.00000000000E+00 0.  1.
         12    1    6    6    0    0  0.33508356363E+02 -0.19556420187E+02  0.63201277036E+02  0.74159725833E+02  0.00000000000E+00 0. -1.
         -5    1    3    3    0  503 -0.68543933020E+02  0.21023657771E+02  0.64381307389E+02  0.96474388731E+02  0.47000000000E+01 0.  1.
         13    1    4    4    0    0 -0.60614666047E+02 -0.20758104390E+00 -0.17908983697E+02  0.63205320401E+02  0.00000000000E+00 0. -1.
        -14    1    4    4    0    0 -0.14306533839E+01  0.45954689700E+02 -0.47801316522E+02  0.66323797658E+02  0.00000000000E+00 0.  1.
</event>
<event>
12    1  0.1596842E-001  0.1993579E+03  0.7818608E-02  0.1150331E+00
         21   -1    0    0  501  502  0.00000000000E+00  0.00000000000E+00  0.16000504496E+04  0.16000504496E+04  0.00000000000E+00 0.  1.
         21   -1    0    0  502  503 -0.00000000000E+00 -0.00000000000E+00 -0.85440506532E+02  0.85440506532E+02  0.00000000000E+00 0.  1.
         -6    2    1    2    0  503 -0.59210915211E+02  0.81062922212E+02  0.47254180203E+02  0.20465453774E+03  0.17196916128E+03 0.  0.
        -24    2    3    3    0    0  0.17372588747E+02  0.50516135782E+00  0.48345529348E+02  0.93398675170E+02  0.77999745435E+02 0.  0.
          6    2    1    2  501    0  0.59210915211E+02 -0.81062922212E+02  0.14673557629E+04  0.14808364184E+04  0.17223946526E+03 0.  0.
         24    2    5    5    0    0  0.95610435492E+01 -0.10640469753E+03  0.12188472947E+04  0.12261093800E+04  0.79637370345E+02 0.  0.
          5    1    5    5  501    0  0.49649871661E+02  0.25341775315E+02  0.24850846820E+03  0.25472703841E+03  0.47000000000E+01 0. -1.
        -11    1    6    6    0    0  0.42342900301E+02 -0.81999711330E+02  0.86566798335E+03  0.87057333480E+03  0.00000000000E+00 0.  1.
         12    1    6    6    0    0 -0.32781856752E+02 -0.24404986198E+02  0.35317931133E+03  0.35553604520E+03  0.00000000000E+00 0. -1.
         -5    1    3    3    0  503 -0.76583503957E+02  0.80557760855E+02 -0.10913491450E+01  0.11125586257E+03  0.47000000000E+01 0.  1.
         11    1    4    4    0    0  0.43773276365E+02  0.18682499931E+02  0.25124235945E+02  0.53817866543E+02  0.00000000000E+00 0. -1.
        -12    1    4    4    0    0 -0.26400687618E+02 -0.18177338573E+02  0.23221293403E+02  0.39580808628E+02  0.00000000000E+00 0.  1.
</event>
<event>
12    1  0.1596842E-001  0.3079170E+03  0.7818608E-02  0.1081354E+00
         21   -1    0    0  501  502  0.00000000000E+00  0.00000000000E+00  0.39653365425E+03  0.39653365425E+03  0.00000000000E+00 0.  1.
         21   -1    0    0  502  503 -0.00000000000E+00 -0.00000000000E+00 -0.37287765862E+03  0.37287765862E+03  0.00000000000E+00 0.  1.
         -6    2    1    2    0  503 -0.17632798595E+03  0.18547250553E+03 -0.21862581996E+03  0.37763760012E+03  0.17123463123E+03 0.  0.
        -24    2    3    3    0    0 -0.10581275339E+03  0.11110658117E+03 -0.21360880927E+03  0.27492465485E+03  0.80086398907E+02 0.  0.
          6    2    1    2  501    0  0.17632798595E+03 -0.18547250553E+03  0.24228181560E+03  0.39177371275E+03  0.17115652162E+03 0.  0.
         24    2    5    5    0    0  0.12252117404E+03 -0.19436254297E+03  0.23132623266E+03  0.33594969845E+03  0.81007023000E+02 0.  0.
          5    1    5    5  501    0  0.53806811916E+02  0.88900374429E+01  0.10955582933E+02  0.55824014292E+02  0.47000000000E+01 0. -1.
        -13    1    6    6    0    0  0.11330637151E+03 -0.16306704835E+03  0.15165215048E+03  0.24985509966E+03  0.00000000000E+00 0.  1.
         14    1    6    6    0    0  0.92148025239E+01 -0.31295494625E+02  0.79674082183E+02  0.86094598792E+02  0.00000000000E+00 0. -1.
         -5    1    3    3    0  503 -0.70515232563E+02  0.74365924358E+02 -0.50170106941E+01  0.10271294527E+03  0.47000000000E+01 0.  1.
         13    1    4    4    0    0  0.84220257214E+01  0.26317582014E+01 -0.38004017772E+02  0.39014895044E+02  0.00000000000E+00 0. -1.
        -14    1    4    4    0    0 -0.11423477911E+03  0.10847482297E+03 -0.17560479150E+03  0.23590975981E+03  0.00000000000E+00 0.  1.
</event>
<event>
12    1  0.1596842E-001  0.2565968E+03  0.7818608E-02  0.1109275E+00
         21   -1    0    0  501  502  0.00000000000E+00  0.00000000000E+00  0.67680535939E+02  0.67680535939E+02  0.00000000000E+00 0. -1.
         21   -1    0    0  502  503 -0.00000000000E+00 -0.00000000000E+00 -0.10142985482E+04  0.10142985482E+04  0.00000000000E+00 0.  1.
         -6    2    1    2    0  503  0.10617930969E+03  0.15753032956E+03 -0.58453426215E+03  0.63819248065E+03  0.17181236332E+03 0.  0.
        -24    2    3    3    0    0  0.47651572640E+01  0.87569122542E+02 -0.36208803204E+03  0.38386234855E+03  0.92474330195E+02 0.  0.
          6    2    1    2  501    0 -0.10617930969E+03 -0.15753032956E+03 -0.36208375009E+03  0.44378660347E+03  0.17248784539E+03 0.  0.
         24    2    5    5    0    0 -0.76455434611E+02 -0.17280276325E+03 -0.35361847783E+03  0.40899426502E+03  0.80771606942E+02 0.  0.
          5    1    5    5  501    0 -0.29723875077E+02  0.15272433699E+02 -0.84652722638E+01  0.34792338455E+02  0.47000000000E+01 0. -1.
        -11    1    6    6    0    0 -0.13191984275E+02 -0.56888368534E+01 -0.86079504376E+02  0.87270111651E+02  0.00000000000E+00 0.  1.
         12    1    6    6    0    0 -0.63263450336E+02 -0.16711392640E+03 -0.26753897345E+03  0.32172415337E+03  0.00000000000E+00 0. -1.
         -5    1    3    3    0  503  0.10141415242E+03  0.69961207014E+02 -0.22244623011E+03  0.25433013209E+03  0.47000000000E+01 0.  1.
         13    1    4    4    0    0 -0.43369988275E+01  0.22583841450E+02 -0.89457623946E+01  0.24675212630E+02  0.00000000000E+00 0. -1.
        -14    1    4    4    0    0  0.91021560915E+01  0.64985281092E+02 -0.35314226964E+03  0.35918713592E+03  0.00000000000E+00 0.  1.
</event>
<event>
12    1  0.1596842E-001  0.2002399E+03  0.7818608E-02  0.1149542E+00
         21   -1    0    0  501  502  0.00000000000E+00  0.00000000000E+00  0.10589774703E+03  0.10589774703E+03  0.00000000000E+00 0.  1.
         21   -1    0    0  502  503 -0.00000000000E+00 -0.00000000000E+00 -0.38655722106E+03  0.38655722106E+03  0.00000000000E+00 0. -1.
         -6    2    1    2    0  503  0.92186388498E+02  0.43815729302E+02 -0.17567911264E+03  0.26636449266E+03  0.17224617259E+03 0.  0.
        -24    2    3    3    0    0  0.96615485271E+02  0.84617336445E+02 -0.10156673770E+03  0.18151685178E+03  0.78344876352E+02 0.  0.
          6    2    1    2  501    0 -0.92186388498E+02 -0.43815729302E+02 -0.10498036139E+03  0.22609047543E+03  0.17227268630E+03 0.  0.
         24    2    5    5    0    0 -0.14655155796E+02 -0.27631540920E+02  0.11954438630E+02  0.84779267620E+02  0.77886712412E+02 0.  0.
          5    1    5    5  501    0 -0.77531232702E+02 -0.16184188383E+02 -0.11693480002E+03  0.14131120781E+03  0.47000000000E+01 0. -1.
        -11    1    6    6    0    0 -0.32291259970E+02 -0.39269494060E+02  0.28188859941E+02  0.58132869007E+02  0.00000000000E+00 0.  1.
         12    1    6    6    0    0  0.17636104174E+02  0.11637953141E+02 -0.16234421312E+02  0.26646398613E+02  0.00000000000E+00 0. -1.
         -5    1    3    3    0  503 -0.44290967726E+01 -0.40801607143E+02 -0.74112374945E+02  0.84847640884E+02  0.47000000000E+01 0.  1.
         13    1    4    4    0    0 -0.15270191629E+01  0.37144985948E+02 -0.46021887273E+02  0.59161608133E+02  0.00000000000E+00 0. -1.
        -14    1    4    4    0    0  0.98142504433E+02  0.47472350497E+02 -0.55544850425E+02  0.12235524364E+03  0.00000000000E+00 0.  1.
</event>
<event>
12    1  0.1596842E-001  0.2274022E+03  0.7818608E-02  0.1128564E+00
         21   -1    0    0  503  502  0.00000000000E+00  0.00000000000E+00  0.24561831206E+03  0.24561831206E+03  0.00000000000E+00 0.  1.
         21   -1    0    0  501  503 -0.00000000000E+00 -0.00000000000E+00 -0.46585480816E+03  0.46585480816E+03  0.00000000000E+00 0. -1.
          6    2    1    2  501    0 -0.51740481485E+02  0.13942326640E+03 -0.37364405254E+03  0.43716372132E+03  0.17142437575E+03 0.  0.
         24    2    3    3    0    0  0.34554144390E+02  0.39006891002E+02 -0.15806049172E+03  0.18412504325E+03  0.78761577362E+02 0.  0.
         -6    2    1    2    0  502  0.51740481485E+02 -0.13942326640E+03  0.15340755643E+03  0.27430939890E+03  0.17203442480E+03 0.  0.
        -24    2    5    5    0    0  0.17364504496E+02 -0.76432474010E+02  0.10549311397E+02  0.11437154880E+03  0.82620300797E+02 0.  0.
          5    1    3    3  501    0 -0.86294625875E+02  0.10041637540E+03 -0.21558356082E+03  0.25303867807E+03  0.47000000000E+01 0. -1.
        -13    1    4    4    0    0  0.13337846012E+01  0.41907211853E+02 -0.29388830310E+02  0.51202507103E+02  0.00000000000E+00 0.  1.
         14    1    4    4    0    0  0.33220359789E+02 -0.29003208509E+01 -0.12867166141E+03  0.13292253614E+03  0.00000000000E+00 0. -1.
         -5    1    5    5    0  502  0.34375976989E+02 -0.62990792391E+02  0.14285824504E+03  0.15993785010E+03  0.47000000000E+01 0.  1.
         11    1    6    6    0    0  0.27898846585E+02 -0.91360600864E+02  0.72005263989E+01  0.95796412310E+02  0.00000000000E+00 0. -1.
        -12    1    6    6    0    0 -0.10534342089E+02  0.14928126854E+02  0.33487849979E+01  0.18575136488E+02  0.00000000000E+00 0.  1.
</event>
<event>
12    1  0.1596842E-001  0.1968192E+03  0.7818608E-02  0.1153154E+00
         21   -1    0    0  503  502  0.00000000000E+00  0.00000000000E+00  0.26213145753E+03  0.26213145753E+03  0.00000000000E+00 0.  1.
         21   -1    0    0  501  503 -0.00000000000E+00 -0.00000000000E+00 -0.14998210496E+03  0.14998210496E+03  0.00000000000E+00 0. -1.
          6    2    1    2  501    0  0.22530388480E+02 -0.91989569527E+02  0.20355860507E+02  0.19786901862E+03  0.17253431011E+03 0.  0.
         24    2    3    3    0    0 -0.44966634193E+02 -0.92409816804E+01  0.72186675292E+01  0.90175691529E+02  0.77279701402E+02 0.  0.
         -6    2    1    2    0  502 -0.22530388480E+02  0.91989569527E+02  0.91793492063E+02  0.21424454387E+03  0.16883417926E+03 0.  0.
        -24    2    5    5    0    0 -0.74309950633E+02  0.68233862481E+02  0.29388628850E+02  0.12961645381E+03  0.75887448512E+02 0.  0.
          5    1    3    3  501    0  0.67497022673E+02 -0.82748587846E+02  0.13137192978E+02  0.10769332709E+03  0.47000000000E+01 0. -1.
        -11    1    4    4    0    0 -0.26652215951E+02  0.80406473018E+01 -0.32720786617E+02  0.42960941574E+02  0.00000000000E+00 0.  1.
         12    1    4    4    0    0 -0.18314418243E+02 -0.17281628982E+02  0.39939454146E+02  0.47214749955E+02  0.00000000000E+00 0. -1.
         -5    1    5    5    0  502  0.51779562153E+02  0.23755707046E+02  0.62404863213E+02  0.84628090057E+02  0.47000000000E+01 0.  1.
         11    1    6    6    0    0 -0.23341656058E+02 -0.15636834792E+02  0.68772165023E+01  0.28924723277E+02  0.00000000000E+00 0. -1.
        -12    1    6    6    0    0 -0.50968294575E+02  0.83870697272E+02  0.22511412348E+02  0.10069173054E+03  0.00000000000E+00 0.  1.
</event>
<event>
12    1  0.1596842E-001  0.2501053E+03  0.7818608E-02  0.1113411E+00
         21   -1    0    0  501  502  0.00000000000E+00  0.00000000000E+00  0.34482419592E+03  0.34482419592E+03  0.00000000000E+00 0.  1.
         21   -1    0    0  502  503 -0.00000000000E+00 -0.00000000000E+00 -0.22583564134E+03  0.22583564134E+03  0.00000000000E+00 0. -1.
         -6    2    1    2    0  503  0.69693876366E+01 -0.18160221131E+03 -0.68084193119E+02  0.25920668256E+03  0.17182756302E+03 0.  0.
        -24    2    3    3    0    0  0.30683370321E+02 -0.12115126632E+03  0.20534808142E+02  0.14924265612E+03  0.78946776481E+02 0.  0.
          6    2    1    2  501    0 -0.69693876366E+01  0.18160221131E+03  0.18707274771E+03  0.31145315470E+03  0.17023195683E+03 0.  0.
         24    2    5    5    0    0  0.32780104509E+02  0.17871496265E+03  0.18429084128E+03  0.27122645544E+03  0.81160968603E+02 0.  0.
          5    1    5    5  501    0 -0.39749492145E+02  0.28872486596E+01  0.27819064278E+01  0.40226699268E+02  0.47000000000E+01 0. -1.
        -13    1    6    6    0    0  0.47292582415E+02  0.89661077498E+02  0.60528057408E+02  0.11806499440E+03  0.00000000000E+00 0.  1.
         14    1    6    6    0    0 -0.14512477906E+02  0.89053885148E+02  0.12376278387E+03  0.15316146103E+03  0.00000000000E+00 0. -1.
         -5    1    3    3    0  503 -0.23713982684E+02 -0.60450944989E+02 -0.88619001262E+02  0.10996402643E+03  0.47000000000E+01 0.  1.
         13    1    4    4    0    0  0.32634144818E+02 -0.16983622719E+02 -0.14177408393E+02  0.39426257208E+02  0.00000000000E+00 0. -1.
        -14    1    4    4    0    0 -0.19507744976E+01 -0.10416764360E+03  0.34712216535E+02  0.10981639891E+03  0.00000000000E+00 0.  1.
</event>
<event>
12    1  0.1596842E-001  0.2086199E+03  0.7818608E-02  0.1143028E+00
         21   -1    0    0  501  502  0.00000000000E+00  0.00000000000E+00  0.16851917062E+03  0.16851917062E+03  0.00000000000E+00 0.  1.
         21   -1    0    0  502  503 -0.00000000000E+00 -0.00000000000E+00 -0.26472147917E+03  0.26472147917E+03  0.00000000000E+00 0.  1.
         -6    2    1    2    0  503  0.84938537611E+02  0.82069515051E+02 -0.87173764675E+02  0.22442550480E+03  0.16975741953E+03 0.  0.
        -24    2    3    3    0    0  0.81238583250E+02  0.61886411400E+01 -0.94071381683E+02  0.14799734371E+03  0.80098578045E+02 0.  0.
          6    2    1    2  501    0 -0.84938537611E+02 -0.82069515051E+02 -0.90285438780E+01  0.20881514500E+03  0.17196595507E+03 0.  0.
         24    2    5    5    0    0 -0.50012657704E+02 -0.39001849827E+02 -0.76860239595E+02  0.12107763980E+03  0.68774182708E+02 0.  0.
          5    1    5    5  501    0 -0.34925879906E+02 -0.43067665224E+02  0.67831695717E+02  0.87737505201E+02  0.47000000000E+01 0. -1.
        -13    1    6    6    0    0 -0.29534801522E+02 -0.57438249215E+02 -0.63036886385E+02  0.90250241102E+02  0.00000000000E+00 0.  1.
         14    1    6    6    0    0 -0.20477856182E+02  0.18436399388E+02 -0.13823353210E+02  0.30827398693E+02  0.00000000000E+00 0. -1.
         -5    1    3    3    0  503  0.36999543609E+01  0.75880873911E+02  0.68976170080E+01  0.76428161094E+02  0.47000000000E+01 0.  1.
         13    1    4    4    0    0  0.56226305111E+02 -0.16805936234E+02 -0.13017728074E+02  0.60110715545E+02  0.00000000000E+00 0. -1.
        -14    1    4    4    0    0  0.25012278139E+02  0.22994577374E+02 -0.81053653608E+02  0.87886628161E+02  0.00000000000E+00 0.  1.
</event>
<event>
12    1  0.1596842E-001  0.2521266E+03  0.7818608E-02  0.1112146E+00
         21   -1    0    0  501  502  0.00000000000E+00  0.00000000000E+00  0.36183485455E+03  0.36183485455E+03  0.00000000000E+00 0.  1.
         21   -1    0    0  502  503 -0.00000000000E+00 -0.00000000000E+00 -0.17677962777E+03  0.17677962777E+03  0.00000000000E+00 0.  1.
         -6    2    1    2    0  503  0.69868861788E+02 -0.16969150833E+03  0.64489076045E+02  0.25914350143E+03  0.17122980920E+03 0.  0.
        -24    2    3    3    0    0  0.43930505415E+02 -0.96639284918E+02  0.10697933831E+03  0.17061701916E+03  0.79978420252E+02 0.  0.
          6    2    1    2  501    0 -0.69868861788E+02  0.16969150833E+03  0.12056615074E+03  0.27947098089E+03  0.17289004195E+03 0.  0.
         24    2    5    5    0    0 -0.73273210674E+02  0.14417918638E+03  0.28236962523E+02  0.18350621048E+03  0.81979278148E+02 0.  0.
          5    1    5    5  501    0  0.34043488860E+01  0.25512321958E+02  0.92329188214E+02  0.95964770407E+02  0.47000000000E+01 0. -1.
        -13    1    6    6    0    0  0.40461282657E+01  0.66689253418E+02  0.31773565581E+02  0.73982343469E+02  0.00000000000E+00 0.  1.
         14    1    6    6    0    0 -0.77319338940E+02  0.77489932957E+02 -0.35366030578E+01  0.10952386701E+03  0.00000000000E+00 0. -1.
         -5    1    3    3    0  503  0.25938356373E+02 -0.73052223415E+02 -0.42490262262E+02  0.88526482277E+02  0.47000000000E+01 0.  1.
         11    1    4    4    0    0  0.64785346787E+02 -0.62579827430E+02  0.89642281902E+02  0.12707916692E+03  0.00000000000E+00 0. -1.
        -12    1    4    4    0    0 -0.20854841371E+02 -0.34059457488E+02  0.17337056405E+02  0.43537852241E+02  0.00000000000E+00 0.  1.
</event>
<event>
12    1  0.1596842E-001  0.3272402E+03  0.7818608E-02  0.1072578E+00
         21   -1    0    0  501  502  0.00000000000E+00  0.00000000000E+00  0.31926325219E+03  0.31926325219E+03  0.00000000000E+00 0.  1.
         21   -1    0    0  502  503 -0.00000000000E+00 -0.00000000000E+00 -0.33789573552E+03  0.33789573552E+03  0.00000000000E+00 0.  1.
         -6    2    1    2    0  503 -0.24688858330E+03  0.12965305843E+03 -0.46952927505E+02  0.33059143434E+03  0.17123735263E+03 0.  0.
        -24    2    3    3    0    0 -0.16301835506E+03  0.35379218366E+02 -0.75717127113E+02  0.20108760705E+03  0.82924478843E+02 0.  0.
          6    2    1    2  501    0  0.24688858330E+03 -0.12965305843E+03  0.28320444178E+02  0.32656755336E+03  0.16757216721E+03 0.  0.
         24    2    5    5    0    0  0.21317292001E+03 -0.53153878061E+02  0.51953905571E+02  0.23956467384E+03  0.80149835099E+02 0.  0.
          5    1    5    5  501    0  0.33715663289E+02 -0.76499180368E+02 -0.23633461393E+02  0.87002879524E+02  0.47000000000E+01 0. -1.
        -13    1    6    6    0    0  0.72115029796E+02 -0.57680522493E+02  0.13824779401E+02  0.93374218728E+02  0.00000000000E+00 0.  1.
         14    1    6    6    0    0  0.14105789022E+03  0.45266444327E+01  0.38129126170E+02  0.14619045511E+03  0.00000000000E+00 0. -1.
         -5    1    3    3    0  503 -0.83870228244E+02  0.94273840063E+02  0.28764199609E+02  0.12950382730E+03  0.47000000000E+01 0.  1.
         11    1    4    4    0    0 -0.10261778229E+03 -0.12971273190E+02 -0.66978222638E+02  0.12322639927E+03  0.00000000000E+00 0. -1.
        -12    1    4    4    0    0 -0.60400572769E+02  0.48350491556E+02 -0.87389044753E+01  0.77861207774E+02  0.00000000000E+00 0.  1.
</event>
<event>
12    1  0.1596842E-001  0.2039290E+03  0.7818608E-02  0.1146893E+00
         21   -1    0    0  503  502  0.00000000000E+00  0.00000000000E+00  0.86560629890E+03  0.86560629890E+03  0.00000000000E+00 0. -1.
         21   -1    0    0  501  503 -0.00000000000E+00 -0.00000000000E+00 -0.18496858769E+03  0.18496858769E+03  0.00000000000E+00 0. -1.
          6    2    1    2  501    0  0.76401152017E+02 -0.77228820421E+02 -0.11198301232E+03  0.23265261939E+03  0.17258510807E+03 0.  0.
         24    2    3    3    0    0  0.27599526572E+02  0.69162501357E+01 -0.10918466320E+02  0.92302614031E+02  0.87126294925E+02 0.  0.
         -6    2    1    2    0  502 -0.76401152017E+02  0.77228820421E+02  0.79262072353E+03  0.81792226720E+03  0.17014052157E+03 0.  0.
        -24    2    5    5    0    0 -0.11827140536E+03  0.68677531685E+02  0.62653469851E+03  0.64636207263E+03  0.80829894299E+02 0.  0.
          5    1    3    3  501    0  0.48801625445E+02 -0.84145070556E+02 -0.10106454600E+03  0.14035000536E+03  0.47000000000E+01 0. -1.
        -11    1    4    4    0    0  0.25767172096E+02  0.45463366168E+02 -0.12305834679E+02  0.53687041158E+02  0.00000000000E+00 0.  1.
         12    1    4    4    0    0  0.18323544759E+01 -0.38547116033E+02  0.13873683590E+01  0.38615572873E+02  0.00000000000E+00 0. -1.
         -5    1    5    5    0  502  0.41870253345E+02  0.85512887352E+01  0.16608602502E+03  0.17156019457E+03  0.47000000000E+01 0.  1.
         11    1    6    6    0    0 -0.88366806149E+02  0.86821499027E+02  0.48638378261E+03  0.50191219263E+03  0.00000000000E+00 0. -1.
        -12    1    6    6    0    0 -0.29904599214E+02 -0.18143967341E+02  0.14015091590E+03  0.14444988000E+03  0.00000000000E+00 0.  1.
</event>
<event>
12    1  0.1596842E-001  0.2029656E+03  0.7818608E-02  0.1147922E+00
         21   -1    0    0  501  502  0.00000000000E+00  0.00000000000E+00  0.17460366570E+03  0.17460366570E+03  0.00000000000E+00 0.  1.
         21   -1    0    0  502  503 -0.00000000000E+00 -0.00000000000E+00 -0.29032394797E+03  0.29032394797E+03  0.00000000000E+00 0.  1.
         -6    2    1    2    0  503 -0.10919089507E+03 -0.14271561106E+02 -0.16217931358E+03  0.25980220090E+03  0.17049552726E+03 0.  0.
        -24    2    3    3    0    0  0.29134682353E+01  0.19128759772E+02 -0.40675240689E+02  0.91076685827E+02  0.79158636601E+02 0.  0.
          6    2    1    2  501    0  0.10919089507E+03  0.14271561106E+02  0.46459031304E+02  0.20512541277E+03  0.16670832119E+03 0.  0.
         24    2    5    5    0    0  0.11923294094E+03 -0.21247088041E+02  0.21160272435E+00  0.14576775301E+03  0.81118802297E+02 0.  0.
          5    1    5    5  501    0 -0.10042045869E+02  0.35518649147E+02  0.46247428579E+02  0.59357659764E+02  0.47000000000E+01 0. -1.
        -13    1    6    6    0    0  0.10651112352E+03  0.63804789073E+01  0.21233354282E+02  0.10879423367E+03  0.00000000000E+00 0.  1.
         14    1    6    6    0    0  0.12721817416E+02 -0.27627566948E+02 -0.21021751558E+02  0.36973519340E+02  0.00000000000E+00 0. -1.
         -5    1    3    3    0  503 -0.11210436331E+03 -0.33400320878E+02 -0.12150407289E+03  0.16872551507E+03  0.47000000000E+01 0.  1.
         13    1    4    4    0    0  0.10756203060E+02 -0.29510105097E+02 -0.22185073900E+02  0.38454124760E+02  0.00000000000E+00 0. -1.
        -14    1    4    4    0    0 -0.78427348248E+01  0.48638864870E+02 -0.18490166789E+02  0.52622561067E+02  0.00000000000E+00 0.  1.
</event>
<event>
12    1  0.1596842E-001  0.2693804E+03  0.7818608E-02  0.1101995E+00
         21   -1    0    0  501  502  0.00000000000E+00  0.00000000000E+00  0.37776625988E+02  0.37776625988E+02  0.00000000000E+00 0. -1.
         21   -1    0    0  502  503 -0.00000000000E+00 -0.00000000000E+00 -0.34044886013E+04  0.34044886013E+04  0.00000000000E+00 0.  1.
         -6    2    1    2    0  503 -0.20468456278E+03 -0.91533809856E+01 -0.28219199761E+04  0.28345119022E+04  0.17101408632E+03 0.  0.
        -24    2    3    3    0    0 -0.20941818560E+03 -0.46834252495E+02 -0.24214626168E+04  0.24322303567E+04  0.78828166076E+02 0.  0.
          6    2    1    2  501    0  0.20468456278E+03  0.91533809856E+01 -0.54479199924E+03  0.60775332509E+03  0.17488918520E+03 0.  0.
         24    2    5    5    0    0  0.99292762003E+02  0.16834766197E+02 -0.17903813571E+03  0.22701139932E+03  0.96628460844E+02 0.  0.
          5    1    5    5  501    0  0.10539180078E+03 -0.76813852113E+01 -0.36575386353E+03  0.38074192577E+03  0.47000000000E+01 0. -1.
        -11    1    6    6    0    0  0.20773126009E+02  0.49717981316E+02 -0.59671486395E+02  0.80399544271E+02  0.00000000000E+00 0.  1.
         12    1    6    6    0    0  0.78519635993E+02 -0.32883215120E+02 -0.11936664931E+03  0.14661185505E+03  0.00000000000E+00 0. -1.
         -5    1    3    3    0  503  0.47336228173E+01  0.37680871509E+02 -0.40045735933E+03  0.40228154557E+03  0.47000000000E+01 0.  1.
         13    1    4    4    0    0 -0.21258795640E+02 -0.22827497547E+02 -0.17372526506E+03  0.17650353751E+03  0.00000000000E+00 0. -1.
        -14    1    4    4    0    0 -0.18815938996E+03 -0.24006754948E+02 -0.22477373517E+04  0.22557268191E+04  0.00000000000E+00 0.  1.
</event>
<event>
12    1  0.1596842E-001  0.4055275E+03  0.7818608E-02  0.1041885E+00
         21   -1    0    0  501  502  0.00000000000E+00  0.00000000000E+00  0.34326524513E+03  0.34326524513E+03  0.00000000000E+00 0. -1.
         21   -1    0    0  502  503 -0.00000000000E+00 -0.00000000000E+00 -0.82544438105E+03  0.82544438105E+03  0.00000000000E+00 0.  1.
         -6    2    1    2    0  503 -0.36638191906E+03  0.27932484950E+02 -0.61964738869E+03  0.74055074839E+03  0.17157094830E+03 0.  0.
        -24    2    3    3    0    0 -0.18833979398E+03  0.59384373724E+02 -0.24129867360E+03  0.32119641156E+03  0.77095415407E+02 0.  0.
          6    2    1    2  501    0  0.36638191906E+03 -0.27932484950E+02  0.13746825277E+03  0.42815887779E+03  0.17148343878E+03 0.  0.
         24    2    5    5    0    0  0.26039830106E+03  0.98548687729E+01  0.31975938811E+02  0.27385032426E+03  0.77891885349E+02 0.  0.
          5    1    5    5  501    0  0.10598361801E+03 -0.37787353723E+02  0.10549231396E+03  0.15430855353E+03  0.47000000000E+01 0. -1.
        -13    1    6    6    0    0  0.95614793494E+02 -0.27478365741E+02  0.33223941022E+02  0.10488603137E+03  0.00000000000E+00 0.  1.
         14    1    6    6    0    0  0.16478350756E+03  0.37333234514E+02 -0.12480022103E+01  0.16896429289E+03  0.00000000000E+00 0. -1.
         -5    1    3    3    0  503 -0.17804212508E+03 -0.31451888775E+02 -0.37834871508E+03  0.41935433683E+03  0.47000000000E+01 0.  1.
         11    1    4    4    0    0 -0.13516272572E+03  0.77261165926E+02 -0.17099633561E+03  0.23125310155E+03  0.00000000000E+00 0. -1.
        -12    1    4    4    0    0 -0.53177068260E+02 -0.17876792201E+02 -0.70302337995E+02  0.89943310011E+02  0.00000000000E+00 0.  1.
</event>
<event>
12    1  0.1596842E-001  0.1922092E+03  0.7818608E-02  0.1156534E+00
         21   -1    0    0  503  502  0.00000000000E+00  0.00000000000E+00  0.29152277692E+03  0.29152277692E+03  0.00000000000E+00 0. -1.
         21   -1    0    0  501  503 -0.00000000000E+00 -0.00000000000E+00 -0.15263559445E+03  0.15263559445E+03  0.00000000000E+00 0. -1.
          6    2    1    2  501    0  0.87293714244E+02 -0.20448513398E+01 -0.22279521365E+02  0.19349612817E+03  0.17123084005E+03 0.  0.
         24    2    3    3    0    0  0.59117191647E+02 -0.32513799509E+02 -0.74797536790E+02  0.12639541899E+03  0.76348810903E+02 0.  0.
         -6    2    1    2    0  502 -0.87293714244E+02  0.20448513398E+01  0.16116670384E+03  0.25066224320E+03  0.17097508524E+03 0.  0.
        -24    2    5    5    0    0  0.28414149174E+02  0.64726039949E+01  0.95504683097E+02  0.11746499991E+03  0.61867788352E+02 0.  0.
          5    1    3    3  501    0  0.28176522597E+02  0.30468948169E+02  0.52518015425E+02  0.67100709179E+02  0.47000000000E+01 0. -1.
        -13    1    4    4    0    0  0.40713947016E+02 -0.45469914438E+02 -0.15501411609E+02  0.62971679051E+02  0.00000000000E+00 0.  1.
         14    1    4    4    0    0  0.18403244631E+02  0.12956114929E+02 -0.59296125181E+02  0.63423739944E+02  0.00000000000E+00 0. -1.
         -5    1    5    5    0  502 -0.11570786342E+03 -0.44277526551E+01  0.65662020743E+02  0.13319724328E+03  0.47000000000E+01 0.  1.
         13    1    6    6    0    0  0.29874355318E+01  0.30840709456E+02  0.59588527590E+02  0.67162986467E+02  0.00000000000E+00 0. -1.
        -14    1    6    6    0    0  0.25426713642E+02 -0.24368105461E+02  0.35916155507E+02  0.50302013447E+02  0.00000000000E+00 0.  1.
</event>
<event>
12    1  0.1596842E-001  0.1759332E+03  0.7818608E-02  0.1172282E+00
         21   -1    0    0  501  502  0.00000000000E+00  0.00000000000E+00  0.90694435502E+02  0.90694435502E+02  0.00000000000E+00 0.  1.
         21   -1    0    0  502  503 -0.00000000000E+00 -0.00000000000E+00 -0.46516870070E+03  0.46516870070E+03  0.00000000000E+00 0.  1.
         -6    2    1    2    0  503  0.23519370265E+02 -0.26143914144E+02 -0.33206354613E+03  0.37489031523E+03  0.17041092912E+03 0.  0.
        -24    2    3    3    0    0 -0.15780153854E+02 -0.19957558318E+01 -0.31532561906E+03  0.32559696529E+03  0.79562186226E+02 0.  0.
          6    2    1    2  501    0 -0.23519370265E+02  0.26143914144E+02 -0.42410719074E+02  0.18097282097E+03  0.17238279443E+03 0.  0.
         24    2    5    5    0    0  0.19650545142E+02  0.72546780826E+02 -0.89400186328E+01  0.10914493349E+03  0.78635318021E+02 0.  0.
          5    1    5    5  501    0 -0.43169915407E+02 -0.46402866683E+02 -0.33470700441E+02  0.71827887485E+02  0.47000000000E+01 0. -1.
        -11    1    6    6    0    0 -0.83688561168E+00  0.82505723279E+02 -0.18303713986E+02  0.84515801463E+02  0.00000000000E+00 0.  1.
         12    1    6    6    0    0  0.20487430753E+02 -0.99589424523E+01  0.93636953528E+01  0.24629132025E+02  0.00000000000E+00 0. -1.
         -5    1    3    3    0  503  0.39299524118E+02 -0.24148158312E+02 -0.16737927071E+02  0.49293349941E+02  0.47000000000E+01 0.  1.
         11    1    4    4    0    0  0.74097799810E+01 -0.28820215038E+02 -0.52145254025E+02  0.60038630493E+02  0.00000000000E+00 0. -1.
        -12    1    4    4    0    0 -0.23189933834E+02  0.26824459206E+02 -0.26318036503E+03  0.26555833480E+03  0.00000000000E+00 0.  1.
</event>
<event>
12    1  0.1596842E-001  0.1806471E+03  0.7818608E-02  0.1167374E+00
         21   -1    0    0  501  502  0.00000000000E+00  0.00000000000E+00  0.56019274971E+02  0.56019274971E+02  0.00000000000E+00 0. -1.
         21   -1    0    0  502  503 -0.00000000000E+00 -0.00000000000E+00 -0.58330221714E+03  0.58330221714E+03  0.00000000000E+00 0. -1.
         -6    2    1    2    0  503  0.53392098190E+02  0.28169765003E+01 -0.28856693777E+03  0.34044711839E+03  0.17255350284E+03 0.  0.
        -24    2    3    3    0    0  0.75010725766E+02 -0.33078189879E+02 -0.27160192991E+03  0.29499682115E+03  0.80837742002E+02 0.  0.
          6    2    1    2  501    0 -0.53392098190E+02 -0.28169765003E+01 -0.23871600440E+03  0.29887437372E+03  0.17170296737E+03 0.  0.
         24    2    5    5    0    0 -0.66534020485E+02 -0.43190215423E+02 -0.90353083493E+02  0.14448410576E+03  0.80123695178E+02 0.  0.
          5    1    5    5  501    0  0.13141922295E+02  0.40373238923E+02 -0.14836292091E+03  0.15439026797E+03  0.47000000000E+01 0. -1.
        -11    1    6    6    0    0 -0.73742254174E+02 -0.97209618418E+01 -0.42567097819E+02  0.85699328857E+02  0.00000000000E+00 0.  1.
         12    1    6    6    0    0  0.72082336886E+01 -0.33469253581E+02 -0.47785985674E+02  0.58784776899E+02  0.00000000000E+00 0. -1.
         -5    1    3    3    0  503 -0.21618627576E+02  0.35895166379E+02 -0.16965007861E+02  0.45450297242E+02  0.47000000000E+01 0.  1.
         13    1    4    4    0    0  0.33812188592E+01 -0.16971173554E+02 -0.43490629838E+01  0.17842861924E+02  0.00000000000E+00 0. -1.
        -14    1    4    4    0    0  0.71629506907E+02 -0.16107016325E+02 -0.26725286692E+03  0.27715395922E+03  0.00000000000E+00 0.  1.
</event>
<event>
12    1  0.1596842E-001  0.2158858E+03  0.7818608E-02  0.1137731E+00
         21   -1    0    0  503  502  0.00000000000E+00  0.00000000000E+00  0.71969770421E+02  0.71969770421E+02  0.00000000000E+00 0. -1.
         21   -1    0    0  501  503 -0.00000000000E+00 -0.00000000000E+00 -0.67067357380E+03  0.67067357380E+03  0.00000000000E+00 0. -1.
          6    2    1    2  501    0 -0.26412362866E+02 -0.12328541158E+03 -0.38623692142E+03  0.44247670841E+03  0.17524203948E+03 0.  0.
         24    2    3    3    0    0  0.49657901689E+02 -0.37569635040E+02 -0.18004579236E+03  0.20653020770E+03  0.79754966423E+02 0.  0.
         -6    2    1    2    0  502  0.26412362866E+02  0.12328541158E+03 -0.21246688196E+03  0.30016663581E+03  0.17047265969E+03 0.  0.
        -24    2    5    5    0    0 -0.49370854149E+02  0.76606542429E+02 -0.14070551505E+03  0.18573850733E+03  0.79966915396E+02 0.  0.
          5    1    3    3  501    0 -0.76070264555E+02 -0.85715776535E+02 -0.20619112906E+03  0.23594650071E+03  0.47000000000E+01 0. -1.
        -13    1    4    4    0    0  0.39903650984E+01  0.21396795873E+02 -0.18373489239E+02  0.28483872526E+02  0.00000000000E+00 0.  1.
         14    1    4    4    0    0  0.45667536591E+02 -0.58966430913E+02 -0.16167230312E+03  0.17804633517E+03  0.00000000000E+00 0. -1.
         -5    1    5    5    0  502  0.75783217014E+02  0.46678869147E+02 -0.71761366913E+02  0.11442812848E+03  0.47000000000E+01 0.  1.
         11    1    6    6    0    0  0.18290060083E+02 -0.25529112805E+00 -0.15380497383E+02  0.23898769239E+02  0.00000000000E+00 0. -1.
        -12    1    6    6    0    0 -0.67660914232E+02  0.76861833557E+02 -0.12532501767E+03  0.16183973809E+03  0.00000000000E+00 0.  1.
</event>
<event>
12    1  0.1596842E-001  0.1987718E+03  0.7818608E-02  0.1150885E+00
         21   -1    0    0  503  502  0.00000000000E+00  0.00000000000E+00  0.22591782724E+03  0.22591782724E+03  0.00000000000E+00 0. -1.
         21   -1    0    0  501  503 -0.00000000000E+00 -0.00000000000E+00 -0.20343599381E+03  0.20343599381E+03  0.00000000000E+00 0.  1.
          6    2    1    2  501    0 -0.93989018808E+02 -0.32501364064E+02 -0.69779602872E+02  0.21066421880E+03  0.17210446183E+03 0.  0.
         24    2    3    3    0    0 -0.13043728114E+03 -0.16912405314E+02 -0.72631070459E+02  0.17064282040E+03  0.80893670912E+02 0.  0.
         -6    2    1    2    0  502  0.93989018808E+02  0.32501364064E+02  0.92261436303E+02  0.21868960226E+03  0.17153044973E+03 0.  0.
        -24    2    5    5    0    0  0.95800277252E+02  0.10957188867E+02  0.12688408236E+03  0.17760128564E+03  0.78389369156E+02 0.  0.
          5    1    3    3  501    0  0.36448262334E+02 -0.15588958750E+02  0.28514675877E+01  0.40021398394E+02  0.47000000000E+01 0. -1.
        -11    1    4    4    0    0 -0.51770509097E+02  0.11055904938E+02 -0.69140249310E+02  0.87079232431E+02  0.00000000000E+00 0.  1.
         12    1    4    4    0    0 -0.78666772045E+02 -0.27968310252E+02 -0.34908211494E+01  0.83563587971E+02  0.00000000000E+00 0. -1.
         -5    1    5    5    0  502 -0.18112584437E+01  0.21544175197E+02 -0.34622646058E+02  0.41088316613E+02  0.47000000000E+01 0.  1.
         11    1    6    6    0    0  0.80235164548E+02  0.27762179212E+02  0.52623368212E+02  0.99888132962E+02  0.00000000000E+00 0. -1.
        -12    1    6    6    0    0  0.15565112703E+02 -0.16804990344E+02  0.74260714149E+02  0.77713152683E+02  0.00000000000E+00 0.  1.
</event>
<event>
12    1  0.1596842E-001  0.1832602E+03  0.7818608E-02  0.1164854E+00
         21   -1    0    0  501  502  0.00000000000E+00  0.00000000000E+00  0.15105697348E+03  0.15105697348E+03  0.00000000000E+00 0. -1.
         21   -1    0    0  502  503 -0.00000000000E+00 -0.00000000000E+00 -0.38087171038E+03  0.38087171038E+03  0.00000000000E+00 0. -1.
         -6    2    1    2    0  503  0.83890285871E+01  0.61059618562E+02 -0.28684201432E+03  0.34000051734E+03  0.17182362408E+03 0.  0.
        -24    2    3    3    0    0  0.33549953636E+01  0.24505812809E+02 -0.29069188111E+03  0.30260488016E+03  0.80350189191E+02 0.  0.
          6    2    1    2  501    0 -0.83890285871E+01 -0.61059618562E+02  0.57027277416E+02  0.19192816652E+03  0.17258521929E+03 0.  0.
         24    2    5    5    0    0  0.27108455276E+02 -0.40535867174E+02  0.98304333738E+02  0.13355710254E+03  0.76129709924E+02 0.  0.
          5    1    5    5  501    0 -0.35497483863E+02 -0.20523751387E+02 -0.41277056322E+02  0.58371063981E+02  0.47000000000E+01 0. -1.
        -13    1    6    6    0    0  0.43309911895E+02 -0.13477214885E+02  0.20836295878E+02  0.49915278375E+02  0.00000000000E+00 0.  1.
         14    1    6    6    0    0 -0.16201456619E+02 -0.27058652289E+02  0.77468037860E+02  0.83641824168E+02  0.00000000000E+00 0. -1.
         -5    1    3    3    0  503  0.50340332235E+01  0.36553805752E+02  0.38498667854E+01  0.37395637175E+02  0.47000000000E+01 0.  1.
         13    1    4    4    0    0  0.10759979176E+02  0.53203376243E+02 -0.19659522244E+03  0.20395111640E+03  0.00000000000E+00 0. -1.
        -14    1    4    4    0    0 -0.74049838121E+01 -0.28697563434E+02 -0.94096658668E+02  0.98653763764E+02  0.00000000000E+00 0.  1.
</event>
<event>
12    1  0.1596842E-001  0.1765567E+03  0.7818608E-02  0.1171873E+00
         21   -1    0    0  501  502  0.00000000000E+00  0.00000000000E+00  0.18851325619E+03  0.18851325619E+03  0.00000000000E+00 0.  1.
         21   -1    0    0  502  503 -0.00000000000E+00 -0.00000000000E+00 -0.21562805802E+03  0.21562805802E+03  0.00000000000E+00 0.  1.
         -6    2    1    2    0  503 -0.17979924449E+02 -0.14984139269E+02 -0.11368599089E+03  0.20999227519E+03  0.17499842571E+03 0.  0.
        -24    2    3    3    0    0  0.31839493845E+02  0.15354580495E+02 -0.10119810261E+02  0.91036585429E+02  0.83281047162E+02 0.  0.
          6    2    1    2  501    0  0.17979924449E+02  0.14984139269E+02  0.86571189066E+02  0.19414903902E+03  0.17219604079E+03 0.  0.
         24    2    5    5    0    0  0.17579179488E+02  0.71466550987E+02  0.84003998327E+02  0.13741189159E+03  0.80055360558E+02 0.  0.
          5    1    5    5  501    0  0.40074496060E+00 -0.56482411718E+02  0.25671907387E+01  0.56737147428E+02  0.47000000000E+01 0. -1.
        -13    1    6    6    0    0  0.34181929051E+02  0.78154004413E+02  0.49714491539E+02  0.98731876050E+02  0.00000000000E+00 0.  1.
         14    1    6    6    0    0 -0.16602749563E+02 -0.66874534262E+01  0.34289506788E+02  0.38680015540E+02  0.00000000000E+00 0. -1.
         -5    1    3    3    0  503 -0.49819418294E+02 -0.30338719764E+02 -0.10356618063E+03  0.11895568976E+03  0.47000000000E+01 0.  1.
         13    1    4    4    0    0  0.30394742552E+02  0.48437733747E+02 -0.36890164989E+01  0.57303257046E+02  0.00000000000E+00 0. -1.
        -14    1    4    4    0    0  0.14447512933E+01 -0.33083153252E+02 -0.64307937619E+01  0.33733328383E+02  0.00000000000E+00 0.  1.
</event>
<event>
12    1  0.1596842E-001  0.1748430E+03  0.7818608E-02  0.1173798E+00
         21   -1    0    0  503  502  0.00000000000E+00  0.00000000000E+00  0.47107595982E+03  0.47107595982E+03  0.00000000000E+00 0.  1.
         21   -1    0    0  501  503 -0.00000000000E+00 -0.00000000000E+00 -0.12909651638E+03  0.12909651638E+03  0.00000000000E+00 0.  1.
          6    2    1    2  501    0  0.12771701606E+02  0.78259065771E+01 -0.43664312404E+02  0.17674459911E+03  0.17060984720E+03 0.  0.
         24    2    3    3    0    0 -0.27644046239E+02 -0.32961382072E+02  0.18363383380E+02  0.92089058042E+02  0.79325498810E+02 0.  0.
         -6    2    1    2    0  502 -0.12771701606E+02 -0.78259065771E+01  0.38564375584E+03  0.42342787709E+03  0.17420017079E+03 0.  0.
        -24    2    5    5    0    0  0.46881288798E+02 -0.19514950070E+02  0.12759236982E+03  0.15827184599E+03  0.78685931914E+02 0.  0.
          5    1    3    3  501    0  0.40415747845E+02  0.40787288649E+02 -0.62027695784E+02  0.84655541068E+02  0.47000000000E+01 0. -1.
        -11    1    4    4    0    0  0.24138549706E+01 -0.21917590247E+01 -0.28379554705E+02  0.28566232315E+02  0.00000000000E+00 0.  1.
         12    1    4    4    0    0 -0.30057901210E+02 -0.30769623048E+02  0.46742938085E+02  0.63522825727E+02  0.00000000000E+00 0. -1.
         -5    1    5    5    0  502 -0.59652990404E+02  0.11689043493E+02  0.25805138602E+03  0.26515603110E+03  0.47000000000E+01 0.  1.
         13    1    6    6    0    0 -0.19342899050E+02  0.72944727478E+01  0.17797586993E+02  0.27278401330E+02  0.00000000000E+00 0. -1.
        -14    1    6    6    0    0  0.66224187848E+02 -0.26809422818E+02  0.10979478282E+03  0.13099344466E+03  0.00000000000E+00 0.  1.
</event>
<event>
12    1  0.1596842E-001  0.5144156E+03  0.7818608E-02  0.1010157E+00
         21   -1    0    0  503  502  0.00000000000E+00  0.00000000000E+00  0.20186104338E+03  0.20186104338E+03  0.00000000000E+00 0.  1.
         21   -1    0    0  501  503 -0.00000000000E+00 -0.00000000000E+00 -0.14618476173E+04  0.14618476173E+04  0.00000000000E+00 0. -1.
          6    2    1    2  501    0  0.19427492825E+03  0.44325049580E+03 -0.35941697706E+03  0.62657364824E+03  0.17088072886E+03 0.  0.
         24    2    3    3    0    0  0.10896313057E+03  0.13606176455E+03 -0.16604982114E+03  0.25367156134E+03  0.79943419572E+02 0.  0.
         -6    2    1    2    0  502 -0.19427492825E+03 -0.44325049580E+03 -0.90056959686E+03  0.10371350125E+04  0.17438373060E+03 0.  0.
        -24    2    5    5    0    0 -0.16832460576E+03 -0.25576931184E+03 -0.46726731330E+03  0.56427607734E+03  0.79483555517E+02 0.  0.
          5    1    3    3  501    0  0.85311797682E+02  0.30718873124E+03 -0.19336715592E+03  0.37290208690E+03  0.47000000000E+01 0. -1.
        -13    1    4    4    0    0  0.82607850145E+02  0.12910148365E+03 -0.10212073562E+03  0.18417354487E+03  0.00000000000E+00 0.  1.
         14    1    4    4    0    0  0.26355280425E+02  0.69602808961E+01 -0.63929085525E+02  0.69498016465E+02  0.00000000000E+00 0. -1.
         -5    1    5    5    0  502 -0.25950322487E+02 -0.18748118395E+03 -0.43330228357E+03  0.47285893511E+03  0.47000000000E+01 0.  1.
         13    1    6    6    0    0 -0.32429780828E+02 -0.96360041575E+02 -0.20318816644E+03  0.22720558813E+03  0.00000000000E+00 0. -1.
        -14    1    6    6    0    0 -0.13589482494E+03 -0.15940927027E+03 -0.26407914686E+03  0.33707048921E+03  0.00000000000E+00 0.  1.
</event>
<event>
12    1  0.1596842E-001  0.1912193E+03  0.7818608E-02  0.1157380E+00
         21   -1    0    0  503  502  0.00000000000E+00  0.00000000000E+00  0.89447051872E+03  0.89447051872E+03  0.00000000000E+00 0. -1.
         21   -1    0    0  501  503 -0.00000000000E+00 -0.00000000000E+00 -0.46309764926E+02  0.46309764926E+02  0.00000000000E+00 0.  1.
          6    2    1    2  501    0  0.30385111089E+02 -0.73507260046E+02  0.26273583620E+03  0.32491736061E+03  0.17382347180E+03 0.  0.
         24    2    3    3    0    0 -0.49506356905E+02 -0.57751916664E+02  0.15884234910E+03  0.19283093374E+03  0.78528427248E+02 0.  0.
         -6    2    1    2    0  502 -0.30385111089E+02  0.73507260046E+02  0.58542491760E+03  0.61586292304E+03  0.17389144191E+03 0.  0.
        -24    2    5    5    0    0  0.26530687966E+02  0.20781821204E+00  0.40924450765E+03  0.41667998399E+03  0.73737517102E+02 0.  0.
          5    1    3    3  501    0  0.79891467994E+02 -0.15755343382E+02  0.10389348709E+03  0.13208642687E+03  0.47000000000E+01 0. -1.
        -13    1    4    4    0    0 -0.99145779574E+01 -0.54341095114E+02  0.13647505698E+03  0.14723007387E+03  0.00000000000E+00 0.  1.
         14    1    4    4    0    0 -0.39591778948E+02 -0.34108215498E+01  0.22367292123E+02  0.45600859869E+02  0.00000000000E+00 0. -1.
         -5    1    5    5    0  502 -0.56915799055E+02  0.73299441834E+02  0.17618040995E+03  0.19918293905E+03  0.47000000000E+01 0.  1.
         11    1    6    6    0    0  0.18559285509E+02  0.28376618201E+02  0.33740755924E+03  0.33910697511E+03  0.00000000000E+00 0. -1.
        -12    1    6    6    0    0  0.79714024572E+01 -0.28168799988E+02  0.71836948405E+02  0.77573008876E+02  0.00000000000E+00 0.  1.
</event>
<event>
12    1  0.1596842E-001  0.1823110E+03  0.7818608E-02  0.1165882E+00
         21   -1    0    0  503  502  0.00000000000E+00  0.00000000000E+00  0.21683272799E+03  0.21683272799E+03  0.00000000000E+00 0.  1.
         21   -1    0    0  501  503 -0.00000000000E+00 -0.00000000000E+00 -0.15964698126E+03  0.15964698126E+03  0.00000000000E+00 0.  1.
          6    2    1    2  501    0 -0.36591237859E+02  0.43485588729E+02 -0.11858000995E+02  0.18269619415E+03  0.17322636073E+03 0.  0.
         24    2    3    3    0    0 -0.38476548834E+02  0.42069742594E+01  0.56553649117E+02  0.10364805803E+03  0.77758994741E+02 0.  0.
         -6    2    1    2    0  502  0.36591237859E+02 -0.43485588729E+02  0.69043747715E+02  0.19378351510E+03  0.17191595770E+03 0.  0.
        -24    2    5    5    0    0 -0.35716821576E+02 -0.40814522570E+02  0.73066320640E+02  0.12116216048E+03  0.80000408280E+02 0.  0.
          5    1    3    3  501    0  0.18853109751E+01  0.39278614470E+02 -0.68411650112E+02  0.79048136114E+02  0.47000000000E+01 0. -1.
        -11    1    4    4    0    0  0.31970583475E+01  0.34890130604E+02  0.20761480683E+02  0.40725685701E+02  0.00000000000E+00 0.  1.
         12    1    4    4    0    0 -0.41673607182E+02 -0.30683156345E+02  0.35792168434E+02  0.62922372333E+02  0.00000000000E+00 0. -1.
         -5    1    5    5    0  502  0.72308059436E+02 -0.26710661587E+01 -0.40225729248E+01  0.72621354619E+02  0.47000000000E+01 0.  1.
         11    1    6    6    0    0  0.19965195515E+01  0.19920417819E+02  0.16132547062E+01  0.20085112077E+02  0.00000000000E+00 0. -1.
        -12    1    6    6    0    0 -0.37713341128E+02 -0.60734940389E+02  0.71453065934E+02  0.10107704841E+03  0.00000000000E+00 0.  1.
</event>
<event>
12    1  0.1596842E-001  0.2060578E+03  0.7818608E-02  0.1145067E+00
         21   -1    0    0  503  502  0.00000000000E+00  0.00000000000E+00  0.37176193309E+03  0.37176193309E+03  0.00000000000E+00 0.  1.
         21   -1    0    0  501  503 -0.00000000000E+00 -0.00000000000E+00 -0.14734979670E+03  0.14734979670E+03  0.00000000000E+00 0.  1.
          6    2    1    2  501    0  0.87473363400E+02  0.73349677574E+02 -0.12233757786E+02  0.20642060894E+03  0.17154602432E+03 0.  0.
         24    2    3    3    0    0  0.40236865190E+02  0.85621263515E+02 -0.59675283491E+02  0.13819548933E+03  0.81159397021E+02 0.  0.
         -6    2    1    2    0  502 -0.87473363400E+02 -0.73349677574E+02  0.23664589418E+03  0.31269112085E+03  0.16953670200E+03 0.  0.
        -24    2    5    5    0    0 -0.87063529308E+02 -0.10502131539E+02  0.22007888071E+03  0.24752565499E+03  0.71720870320E+02 0.  0.
          5    1    3    3  501    0  0.47236498210E+02 -0.12271585942E+02  0.47441525704E+02  0.68225119610E+02  0.47000000000E+01 0. -1.
        -13    1    4    4    0    0  0.59598422667E+02  0.44391214480E+02 -0.18012620014E+02  0.76465720340E+02  0.00000000000E+00 0.  1.
         14    1    4    4    0    0 -0.19361557477E+02  0.41230049035E+02 -0.41662663476E+02  0.61729768988E+02  0.00000000000E+00 0. -1.
         -5    1    5    5    0  502 -0.40983409195E+00 -0.62847546034E+02  0.16567013469E+02  0.65165465868E+02  0.47000000000E+01 0.  1.
         13    1    6    6    0    0 -0.60144545760E+01  0.66505114941E-01  0.11129472193E+03  0.11145713623E+03  0.00000000000E+00 0. -1.
        -14    1    6    6    0    0 -0.81049074732E+02 -0.10568636654E+02  0.10878415878E+03  0.13606851876E+03  0.00000000000E+00 0.  1.
</event>
<event>
12    1  0.1596842E-001  0.1750448E+03  0.7818608E-02  0.1172812E+00
         21   -1    0    0  501  502  0.00000000000E+00  0.00000000000E+00  0.52886476877E+02  0.52886476877E+02  0.00000000000E+00 0.  1.
         21   -1    0    0  502  503 -0.00000000000E+00 -0.00000000000E+00 -0.78583619364E+03  0.78583619364E+03  0.00000000000E+00 0.  1.
         -6    2    1    2    0  503 -0.26769446368E+02 -0.33946673249E+01 -0.58267169665E+03  0.60839707022E+03  0.17295248464E+03 0.  0.
        -24    2    3    3    0    0 -0.57183031396E+02  0.52069902270E+02 -0.39341183484E+03  0.40879073282E+03  0.79723382062E+02 0.  0.
          6    2    1    2  501    0  0.26769446368E+02  0.33946673249E+01 -0.15027802011E+03  0.23032560030E+03  0.17244788140E+03 0.  0.
         24    2    5    5    0    0  0.27820622123E+02  0.63736290629E+02 -0.67204333101E+02  0.12753676848E+03  0.83143870299E+02 0.  0.
          5    1    5    5  501    0 -0.10511757557E+01 -0.60341623304E+02 -0.83073687008E+02  0.10278883182E+03  0.47000000000E+01 0. -1.
        -11    1    6    6    0    0  0.10000378532E+02 -0.18306486862E+02 -0.27900406648E+02  0.34836298930E+02  0.00000000000E+00 0.  1.
         12    1    6    6    0    0  0.17820243591E+02  0.82042777491E+02 -0.39303926453E+02  0.92700469550E+02  0.00000000000E+00 0. -1.
         -5    1    3    3    0  503  0.30413585028E+02 -0.55464569595E+02 -0.18925986181E+03  0.19960633739E+03  0.47000000000E+01 0.  1.
         11    1    4    4    0    0 -0.72978727023E+02  0.23285569943E+02 -0.24096826513E+03  0.25285137367E+03  0.00000000000E+00 0. -1.
        -12    1    4    4    0    0  0.15795695628E+02  0.28784332327E+02 -0.15244356971E+03  0.15593935916E+03  0.00000000000E+00 0.  1.
</event>
<event>
12    1  0.1596842E-001  0.1886246E+03  0.7818608E-02  0.1159779E+00
         21   -1    0    0  503  502  0.00000000000E+00  0.00000000000E+00  0.25101332944E+03  0.25101332944E+03  0.00000000000E+00 0.  1.
         21   -1    0    0  501  503 -0.00000000000E+00 -0.00000000000E+00 -0.16661885321E+03  0.16661885321E+03  0.00000000000E+00 0. -1.
          6    2    1    2  501    0 -0.69607785336E+02  0.33906138554E+02 -0.38898204405E+02  0.19228725471E+03  0.17165793896E+03 0.  0.
         24    2    3    3    0    0 -0.83177606554E+02  0.79710887212E+02 -0.21130641605E+02  0.14110140378E+03  0.78681397816E+02 0.  0.
         -6    2    1    2    0  502  0.69607785336E+02 -0.33906138554E+02  0.12329268063E+03  0.22534492794E+03  0.17200110884E+03 0.  0.
        -24    2    5    5    0    0  0.90196726103E+02  0.22562181766E+02  0.54831464000E+02  0.13412210260E+03  0.79609971201E+02 0.  0.
          5    1    3    3  501    0  0.13569821218E+02 -0.45804748658E+02 -0.17767562800E+02  0.51185850929E+02  0.47000000000E+01 0. -1.
        -13    1    4    4    0    0 -0.39524527526E+02  0.77082242875E+02  0.10315870572E+02  0.87236905197E+02  0.00000000000E+00 0.  1.
         14    1    4    4    0    0 -0.43653079029E+02  0.26286443377E+01 -0.31446512177E+02  0.53864498585E+02  0.00000000000E+00 0. -1.
         -5    1    5    5    0  502 -0.20588940767E+02 -0.56468320321E+02  0.68461216628E+02  0.91222825345E+02  0.47000000000E+01 0.  1.
         13    1    6    6    0    0 -0.91913645908E+01  0.12851714989E+02  0.25577216923E+02  0.30063961594E+02  0.00000000000E+00 0. -1.
        -14    1    6    6    0    0  0.99388090694E+02  0.97104667776E+01  0.29254247077E+02  0.10405814100E+03  0.00000000000E+00 0.  1.
</event>
<event>
12    1  0.1596842E-001  0.3982704E+03  0.7818608E-02  0.1044384E+00
         21   -1    0    0  503  502  0.00000000000E+00  0.00000000000E+00  0.43638656601E+03  0.43638656601E+03  0.00000000000E+00 0.  1.
         21   -1    0    0  501  503 -0.00000000000E+00 -0.00000000000E+00 -0.38249851210E+03  0.38249851210E+03  0.00000000000E+00 0.  1.
          6    2    1    2  501    0  0.27562379133E+03  0.22992134348E+03 -0.64443025465E+02  0.40345043208E+03  0.17258924961E+03 0.  0.
         24    2    3    3    0    0  0.67911957518E+02  0.42251814075E+02  0.85025651688E+01  0.11412845337E+03  0.80967650874E+02 0.  0.
         -6    2    1    2    0  502 -0.27562379133E+03 -0.22992134348E+03  0.11833107938E+03  0.41543464603E+03  0.17248594794E+03 0.  0.
        -24    2    5    5    0    0 -0.77059984231E+02 -0.51535925254E+02  0.78805289246E+02  0.14555815388E+03  0.79891863089E+02 0.  0.
          5    1    3    3  501    0  0.20771183381E+03  0.18766952940E+03 -0.72945590633E+02  0.28932197871E+03  0.47000000000E+01 0. -1.
        -13    1    4    4    0    0  0.33201456667E+02  0.28538493334E+02 -0.35546617619E+02  0.56394541852E+02  0.00000000000E+00 0.  1.
         14    1    4    4    0    0  0.34710500852E+02  0.13713320741E+02  0.44049182788E+02  0.57733911520E+02  0.00000000000E+00 0. -1.
         -5    1    5    5    0  502 -0.19856380710E+03 -0.17838541822E+03  0.39525790134E+02  0.26987649214E+03  0.47000000000E+01 0.  1.
         13    1    6    6    0    0 -0.32441897798E+01 -0.48064991613E+02  0.26092881479E+02  0.54786920427E+02  0.00000000000E+00 0. -1.
        -14    1    6    6    0    0 -0.73815794451E+02 -0.34709336411E+01  0.52712407767E+02  0.90771233457E+02  0.00000000000E+00 0.  1.
</event>
<event>
12    1  0.1596842E-001  0.2798380E+03  0.7818608E-02  0.1095920E+00
         21   -1    0    0  501  502  0.00000000000E+00  0.00000000000E+00  0.18391569368E+04  0.18391569368E+04  0.00000000000E+00 0. -1.
         21   -1    0    0  502  503 -0.00000000000E+00 -0.00000000000E+00 -0.26919980394E+03  0.26919980394E+03  0.00000000000E+00 0.  1.
         -6    2    1    2    0  503  0.81653666555E+02  0.20476996901E+03 -0.18281082010E+03  0.33339060175E+03  0.17067933654E+03 0.  0.
        -24    2    3    3    0    0 -0.35911421468E+01  0.14344073226E+03 -0.15319952933E+03  0.22418038597E+03  0.78731249785E+02 0.  0.
          6    2    1    2  501    0 -0.81653666555E+02 -0.20476996901E+03  0.17527679529E+04  0.17749661390E+04  0.17236947569E+03 0.  0.
         24    2    5    5    0    0 -0.11765120049E+03 -0.16098766498E+03  0.15270738135E+04  0.15422159571E+04  0.81956043735E+02 0.  0.
          5    1    5    5  501    0  0.35997533939E+02 -0.43782304031E+02  0.22569413945E+03  0.23275018191E+03  0.47000000000E+01 0. -1.
        -11    1    6    6    0    0 -0.87502101998E+02 -0.11928955299E+03  0.81746838041E+03  0.83074735526E+03  0.00000000000E+00 0.  1.
         12    1    6    6    0    0 -0.30149098496E+02 -0.41698111993E+02  0.70960543308E+03  0.71146860180E+03  0.00000000000E+00 0. -1.
         -5    1    3    3    0  503  0.85244808702E+02  0.61329236754E+02 -0.29611290768E+02  0.10921021579E+03  0.47000000000E+01 0.  1.
         11    1    4    4    0    0  0.41772082344E+01 -0.60069099563E+01 -0.28383154366E+02  0.29311013077E+02  0.00000000000E+00 0. -1.
        -12    1    4    4    0    0 -0.77683503812E+01  0.14944764222E+03 -0.12481637496E+03  0.19486937289E+03  0.00000000000E+00 0.  1.
</event>
<event>
12    1  0.1596842E-001  0.1739041E+03  0.7818608E-02  0.1173837E+00
         21   -1    0    0  503  502  0.00000000000E+00  0.00000000000E+00  0.69613819302E+03  0.69613819302E+03  0.00000000000E+00 0.  1.
         21   -1    0    0  501  503 -0.00000000000E+00 -0.00000000000E+00 -0.50521529801E+02  0.50521529801E+02  0.00000000000E+00 0.  1.
          6    2    1    2  501    0  0.19699276575E+02 -0.23560782780E+01  0.18306539747E+03  0.25249869443E+03  0.17276874236E+03 0.  0.
         24    2    3    3    0    0  0.52855357270E+01  0.17745968397E+02  0.17339246274E+02  0.84870846517E+02  0.80991078798E+02 0.  0.
         -6    2    1    2    0  502 -0.19699276575E+02  0.23560782780E+01  0.46255126575E+03  0.49416102839E+03  0.17276526252E+03 0.  0.
        -24    2    5    5    0    0 -0.74606913799E+02  0.16904086557E+02  0.36426434338E+03  0.38054367813E+03  0.79202521309E+02 0.  0.
          5    1    3    3  501    0  0.14413740848E+02 -0.20102046675E+02  0.16572615120E+03  0.16762784791E+03  0.47000000000E+01 0. -1.
        -11    1    4    4    0    0 -0.32722507764E+02 -0.10390045393E+02  0.15163222279E+02  0.37531838052E+02  0.00000000000E+00 0.  1.
         12    1    4    4    0    0  0.38008043491E+02  0.28136013790E+02  0.21760239954E+01  0.47339008465E+02  0.00000000000E+00 0. -1.
         -5    1    5    5    0  502  0.54907637224E+02 -0.14548008279E+02  0.98286922372E+02  0.11361735026E+03  0.47000000000E+01 0.  1.
         13    1    6    6    0    0 -0.48389295265E+02  0.43574027794E+02  0.15759899632E+03  0.17052173889E+03  0.00000000000E+00 0. -1.
        -14    1    6    6    0    0 -0.26217618534E+02 -0.26669941237E+02  0.20666534706E+03  0.21002193924E+03  0.00000000000E+00 0.  1.
</event>
<event>
12    1  0.1596842E-001  0.1749708E+03  0.7818608E-02  0.1172913E+00
         21   -1    0    0  501  502  0.00000000000E+00  0.00000000000E+00  0.35744824805E+02  0.35744824805E+02  0.00000000000E+00 0.  1.
         21   -1    0    0  502  503 -0.00000000000E+00 -0.00000000000E+00 -0.11144887879E+04  0.11144887879E+04  0.00000000000E+00 0.  1.
         -6    2    1    2    0  503 -0.17856144511E+02 -0.25599282971E+02 -0.81695286419E+03  0.83535369588E+03  0.17155072056E+03 0.  0.
        -24    2    3    3    0    0 -0.43727988404E+02  0.37711968786E+02 -0.59434816404E+03  0.60243180031E+03  0.79624144390E+02 0.  0.
          6    2    1    2  501    0  0.17856144511E+02  0.25599282971E+02 -0.26179109887E+03  0.31487991679E+03  0.17216450670E+03 0.  0.
         24    2    5    5    0    0  0.68307932549E+02  0.52428089273E+02 -0.18947268299E+03  0.22259117946E+03  0.78944647557E+02 0.  0.
          5    1    5    5  501    0 -0.50451788038E+02 -0.26828806302E+02 -0.72318415876E+02  0.92288737334E+02  0.47000000000E+01 0. -1.
        -11    1    6    6    0    0  0.96053898944E+01  0.28650518246E+02 -0.93090540749E+01  0.31619206166E+02  0.00000000000E+00 0.  1.
         12    1    6    6    0    0  0.58702542655E+02  0.23777571027E+02 -0.18016362892E+03  0.19097197329E+03  0.00000000000E+00 0. -1.
         -5    1    3    3    0  503  0.25871843893E+02 -0.63311251757E+02 -0.22260470015E+03  0.23292189557E+03  0.47000000000E+01 0.  1.
         13    1    4    4    0    0 -0.23171589135E+02  0.21204879902E+02 -0.62672197631E+02  0.70102595035E+02  0.00000000000E+00 0. -1.
        -14    1    4    4    0    0 -0.20556399269E+02  0.16507088884E+02 -0.53167596641E+03  0.53232920527E+03  0.00000000000E+00 0.  1.
</event>
<event>
12    1  0.1596842E-001  0.2549544E+03  0.7818608E-02  0.1110366E+00
         21   -1    0    0  503  502  0.00000000000E+00  0.00000000000E+00  0.33501661953E+03  0.33501661953E+03  0.00000000000E+00 0.  1.
         21   -1    0    0  501  503 -0.00000000000E+00 -0.00000000000E+00 -0.20266115651E+03  0.20266115651E+03  0.00000000000E+00 0.  1.
          6    2    1    2  501    0  0.18823166446E+03  0.15104794973E+01  0.12416233383E+03  0.28358071251E+03  0.17195433786E+03 0.  0.
         24    2    3    3    0    0  0.20056581262E+03  0.25065290183E+02  0.79387993352E+02  0.23129503682E+03  0.79624284026E+02 0.  0.
         -6    2    1    2    0  502 -0.18823166446E+03 -0.15104794973E+01  0.81931291949E+01  0.25409706354E+03  0.17048386808E+03 0.  0.
        -24    2    5    5    0    0 -0.45818499793E+02 -0.11371316660E+02 -0.43733678979E+02  0.10211933824E+03  0.79291126859E+02 0.  0.
          5    1    3    3  501    0 -0.12334148154E+02 -0.23554810686E+02  0.44774340474E+02  0.52285675687E+02  0.47000000000E+01 0. -1.
        -13    1    4    4    0    0  0.12951419651E+03  0.37028564810E+02  0.84580759628E+02  0.15905642586E+03  0.00000000000E+00 0.  1.
         14    1    4    4    0    0  0.71051616108E+02 -0.11963274626E+02 -0.51927662763E+01  0.72238610956E+02  0.00000000000E+00 0. -1.
         -5    1    5    5    0  502 -0.14241316467E+03  0.98608371629E+01  0.51926808174E+02  0.15197772530E+03  0.47000000000E+01 0.  1.
         13    1    6    6    0    0  0.59079005584E+00  0.28531731419E+02 -0.32171224274E+01  0.28718610819E+02  0.00000000000E+00 0. -1.
        -14    1    6    6    0    0 -0.46409289849E+02 -0.39903048080E+02 -0.40516556551E+02  0.73400727416E+02  0.00000000000E+00 0.  1.
</event>
<event>
12    1  0.1596842E-001  0.2182142E+03  0.7818608E-02  0.1135344E+00
         21   -1    0    0  501  502  0.00000000000E+00  0.00000000000E+00  0.22604423738E+03  0.22604423738E+03  0.00000000000E+00 0.  1.
         21   -1    0    0  502  503 -0.00000000000E+00 -0.00000000000E+00 -0.23497775522E+03  0.23497775522E+03  0.00000000000E+00 0. -1.
         -6    2    1    2    0  503 -0.83666415070E+02 -0.10490533725E+03  0.70636325510E+02  0.22936200945E+03  0.17208207955E+03 0.  0.
        -24    2    3    3    0    0 -0.31538929650E+02 -0.13160092129E+03  0.44664776809E+02  0.16512385657E+03  0.83411265137E+02 0.  0.
          6    2    1    2  501    0  0.83666415070E+02  0.10490533725E+03 -0.79569843352E+02  0.23165998315E+03  0.17125942027E+03 0.  0.
         24    2    5    5    0    0  0.20648145313E+02  0.12308272568E+03 -0.75443560685E+02  0.16577496223E+03  0.78828319702E+02 0.  0.
          5    1    5    5  501    0  0.63018269756E+02 -0.18177388434E+02 -0.41262826679E+01  0.65885020923E+02  0.47000000000E+01 0. -1.
        -13    1    6    6    0    0  0.41265198194E+01 -0.11362525706E+02 -0.75894753837E+01  0.14273587245E+02  0.00000000000E+00 0.  1.
         14    1    6    6    0    0  0.16521625494E+02  0.13444525139E+03 -0.67854085301E+02  0.15150137499E+03  0.00000000000E+00 0. -1.
         -5    1    3    3    0  503 -0.52127485420E+02  0.26695584044E+02  0.25971548701E+02  0.64238152881E+02  0.47000000000E+01 0.  1.
         13    1    4    4    0    0  0.29432914012E+01 -0.10758032360E+02 -0.20670765141E+02  0.23487842729E+02  0.00000000000E+00 0. -1.
        -14    1    4    4    0    0 -0.34482221051E+02 -0.12084288893E+03  0.65335541950E+02  0.14163601384E+03  0.00000000000E+00 0.  1.
</event>
<event>
12    1  0.1596842E-001  0.2547535E+03  0.7818608E-02  0.1110460E+00
         21   -1    0    0  501  502  0.00000000000E+00  0.00000000000E+00  0.44843151749E+03  0.44843151749E+03  0.00000000000E+00 0.  1.
         21   -1    0    0  502  503 -0.00000000000E+00 -0.00000000000E+00 -0.61393817101E+03  0.61393817101E+03  0.00000000000E+00 0. -1.
         -6    2    1    2    0  503 -0.13369719926E+03 -0.13244496917E+03 -0.54732095440E+03  0.60336914432E+03  0.17052121933E+03 0.  0.
        -24    2    3    3    0    0 -0.58608813088E+02 -0.85685610341E+02 -0.46320964366E+03  0.48121552804E+03  0.78918905552E+02 0.  0.
          6    2    1    2  501    0  0.13369719926E+03  0.13244496917E+03  0.38181430089E+03  0.45900054418E+03  0.17170535299E+03 0.  0.
         24    2    5    5    0    0  0.64424142309E+01  0.71333936717E+02  0.17596694924E+03  0.20935367202E+03  0.87946333260E+02 0.  0.
          5    1    5    5  501    0  0.12725478503E+03  0.61111032455E+02  0.20584735165E+03  0.24964687216E+03  0.47000000000E+01 0. -1.
        -11    1    6    6    0    0 -0.19589715494E+02  0.73735154868E+02  0.82806297005E+02  0.11259446185E+03  0.00000000000E+00 0.  1.
         12    1    6    6    0    0  0.26032129725E+02 -0.24012181509E+01  0.93160652237E+02  0.96759210165E+02  0.00000000000E+00 0. -1.
         -5    1    3    3    0  503 -0.75088386170E+02 -0.46759358832E+02 -0.84111310738E+02  0.12215361628E+03  0.47000000000E+01 0.  1.
         11    1    4    4    0    0 -0.71516652734E+02 -0.75534446735E+02 -0.44362744823E+03  0.45565929935E+03  0.00000000000E+00 0. -1.
        -12    1    4    4    0    0  0.12907839646E+02 -0.10151163606E+02 -0.19582195437E+02  0.25556228694E+02  0.00000000000E+00 0.  1.
</event>
<event>
12    1  0.1596842E-001  0.1875897E+03  0.7818608E-02  0.1160866E+00
         21   -1    0    0  501  502  0.00000000000E+00  0.00000000000E+00  0.20203480042E+03  0.20203480042E+03  0.00000000000E+00 0. -1.
         21   -1    0    0  502  503 -0.00000000000E+00 -0.00000000000E+00 -0.24821862568E+03  0.24821862568E+03  0.00000000000E+00 0. -1.
         -6    2    1    2    0  503 -0.69735005911E+02 -0.26653908806E+02  0.10061454317E+03  0.21205252427E+03  0.17108356101E+03 0.  0.
        -24    2    3    3    0    0 -0.58287683539E+02 -0.18210675474E+02  0.11719593965E+00  0.11044476778E+03  0.92026899557E+02 0.  0.
          6    2    1    2  501    0  0.69735005911E+02  0.26653908806E+02 -0.14679836842E+03  0.23820090183E+03  0.17209447045E+03 0.  0.
         24    2    5    5    0    0  0.27692441909E+02 -0.45142638993E+02 -0.11438451629E+03  0.14878575058E+03  0.79048420695E+02 0.  0.
          5    1    5    5  501    0  0.42042564002E+02  0.71796547798E+02 -0.32413852130E+02  0.89415151253E+02  0.47000000000E+01 0. -1.
        -13    1    6    6    0    0 -0.15193464203E+00 -0.11616566722E+02 -0.10312014095E+03  0.10377249721E+03  0.00000000000E+00 0.  1.
         14    1    6    6    0    0  0.27844376551E+02 -0.33526072271E+02 -0.11264375338E+02  0.45013253372E+02  0.00000000000E+00 0. -1.
         -5    1    3    3    0  503 -0.11447322371E+02 -0.84432333311E+01  0.10049734723E+03  0.10160775649E+03  0.47000000000E+01 0.  1.
         13    1    4    4    0    0  0.65547409404E+01 -0.41114365826E+02  0.15295444867E+01  0.41661675583E+02  0.00000000000E+00 0. -1.
        -14    1    4    4    0    0 -0.64842424480E+02  0.22903690351E+02 -0.14123485471E+01  0.68783092200E+02  0.00000000000E+00 0.  1.
</event>
<event>
12    1  0.1596842E-001  0.1991664E+03  0.7818608E-02  0.1150567E+00
         21   -1    0    0  503  502  0.00000000000E+00  0.00000000000E+00  0.62219561770E+02  0.62219561770E+02  0.00000000000E+00 0. -1.
         21   -1    0    0  501  503 -0.00000000000E+00 -0.00000000000E+00 -0.83294129208E+03  0.83294129208E+03  0.00000000000E+00 0. -1.
          6    2    1    2  501    0  0.98534853502E+02 -0.18314158810E+02 -0.60359566491E+03  0.63560598824E+03  0.17211252080E+03 0.  0.
         24    2    3    3    0    0  0.18820696046E+02 -0.63170895859E+02 -0.37266929170E+03  0.38717983503E+03  0.81737647306E+02 0.  0.
         -6    2    1    2    0  502 -0.98534853502E+02  0.18314158810E+02 -0.16712606540E+03  0.25955486562E+03  0.17144410390E+03 0.  0.
        -24    2    5    5    0    0 -0.12811923239E+03  0.40979468376E+02 -0.11020899675E+03  0.19135959866E+03  0.79866253816E+02 0.  0.
          5    1    3    3  501    0  0.79714157456E+02  0.44856737049E+02 -0.23092637321E+03  0.24842615321E+03  0.47000000000E+01 0. -1.
        -13    1    4    4    0    0  0.10882633754E+02 -0.59718359153E+02 -0.37357650619E+03  0.37847604960E+03  0.00000000000E+00 0.  1.
         14    1    4    4    0    0  0.79380622920E+01 -0.34525367063E+01  0.90721449014E+00  0.87037854288E+01  0.00000000000E+00 0. -1.
         -5    1    5    5    0  502  0.29584378884E+02 -0.22665309566E+02 -0.56917068649E+02  0.68195266956E+02  0.47000000000E+01 0.  1.
         11    1    6    6    0    0 -0.22701361572E+02 -0.40835396438E+01 -0.63508242415E+02  0.67567181145E+02  0.00000000000E+00 0. -1.
        -12    1    6    6    0    0 -0.10541787081E+03  0.45063008020E+02 -0.46700754340E+02  0.12379241752E+03  0.00000000000E+00 0.  1.
</event>
<event>
12    1  0.1596842E-001  0.2014156E+03  0.7818608E-02  0.1149294E+00
         21   -1    0    0  503  502  0.00000000000E+00  0.00000000000E+00  0.13707242327E+03  0.13707242327E+03  0.00000000000E+00 0. -1.
         21   -1    0    0  501  503 -0.00000000000E+00 -0.00000000000E+00 -0.30605238169E+03  0.30605238169E+03  0.00000000000E+00 0. -1.
          6    2    1    2  501    0 -0.99175119789E+02 -0.14346320789E+02 -0.13464621311E+03  0.24227638332E+03  0.17471897981E+03 0.  0.
         24    2    3    3    0    0 -0.41625078415E+02  0.58767873706E+02 -0.62960035927E+02  0.12472345610E+03  0.80035393705E+02 0.  0.
         -6    2    1    2    0  502  0.99175119789E+02  0.14346320789E+02 -0.34333745311E+02  0.20084842164E+03  0.17064513209E+03 0.  0.
        -24    2    5    5    0    0  0.78702081093E+02  0.64159528173E+02  0.13336450189E+02  0.12877180628E+03  0.78063144730E+02 0.  0.
          5    1    3    3  501    0 -0.57550041375E+02 -0.73114194495E+02 -0.71686177178E+02  0.11755292722E+03  0.47000000000E+01 0. -1.
        -13    1    4    4    0    0  0.23520562854E+02  0.22587519274E+02 -0.13553757029E+02  0.35314547053E+02  0.00000000000E+00 0.  1.
         14    1    4    4    0    0 -0.65145641269E+02  0.36180354432E+02 -0.49406278898E+02  0.89408909051E+02  0.00000000000E+00 0. -1.
         -5    1    5    5    0  502  0.20473038697E+02 -0.49813207384E+02 -0.47670195501E+02  0.72076615365E+02  0.47000000000E+01 0.  1.
         13    1    6    6    0    0  0.61533498495E+02  0.45594499174E+02  0.44550781517E+02  0.88600236601E+02  0.00000000000E+00 0. -1.
        -14    1    6    6    0    0  0.17168582598E+02  0.18565028999E+02 -0.31214331328E+02  0.40171569678E+02  0.00000000000E+00 0.  1.
</event>
<event>
12    1  0.1596842E-001  0.2163153E+03  0.7818608E-02  0.1136710E+00
         21   -1    0    0  503  502  0.00000000000E+00  0.00000000000E+00  0.11074377919E+03  0.11074377919E+03  0.00000000000E+00 0.  1.
         21   -1    0    0  501  503 -0.00000000000E+00 -0.00000000000E+00 -0.43783873957E+03  0.43783873957E+03  0.00000000000E+00 0. -1.
          6    2    1    2  501    0  0.12775061231E+03 -0.35282514798E+02 -0.21578382735E+03  0.30554044636E+03  0.17095973041E+03 0.  0.
         24    2    3    3    0    0  0.70640498363E+02 -0.47418139052E+02 -0.45672969925E+02  0.12562759995E+03  0.80359901484E+02 0.  0.
         -6    2    1    2    0  502 -0.12775061231E+03  0.35282514798E+02 -0.11131113303E+03  0.24304207240E+03  0.17062885402E+03 0.  0.
        -24    2    5    5    0    0 -0.49310882783E+02  0.68823610730E+02 -0.10575849241E+03  0.15742245956E+03  0.80179295983E+02 0.  0.
          5    1    3    3  501    0  0.57110113946E+02  0.12135624254E+02 -0.17011085742E+03  0.17991284641E+03  0.47000000000E+01 0. -1.
        -11    1    4    4    0    0  0.39944556277E+02  0.16849342054E+02 -0.29946257009E+02  0.52690095964E+02  0.00000000000E+00 0.  1.
         12    1    4    4    0    0  0.30695942086E+02 -0.64267481106E+02 -0.15726712916E+02  0.72937503984E+02  0.00000000000E+00 0. -1.
         -5    1    5    5    0  502 -0.78439729526E+02 -0.33541095932E+02 -0.55526406290E+01  0.85619612837E+02  0.47000000000E+01 0.  1.
         13    1    6    6    0    0 -0.63876952198E+02  0.76873845197E+02 -0.89793979139E+02  0.13436075241E+03  0.00000000000E+00 0. -1.
        -14    1    6    6    0    0  0.14566069415E+02 -0.80502344672E+01 -0.15964513266E+02  0.23061707157E+02  0.00000000000E+00 0.  1.
</event>
<event>
12    1  0.1596842E-001  0.2046847E+03  0.7818608E-02  0.1145932E+00
         21   -1    0    0  503  502  0.00000000000E+00  0.00000000000E+00  0.29656445898E+03  0.29656445898E+03  0.00000000000E+00 0.  1.
         21   -1    0    0  501  503 -0.00000000000E+00 -0.00000000000E+00 -0.15799204228E+03  0.15799204228E+03  0.00000000000E+00 0.  1.
          6    2    1    2  501    0 -0.83349468303E+02  0.75480640083E+02 -0.52328347090E+01  0.20475161402E+03  0.17103034816E+03 0.  0.
         24    2    3    3    0    0 -0.88925870072E+02  0.94126224916E+02 -0.45975703643E+02  0.15935529854E+03  0.80701854147E+02 0.  0.
         -6    2    1    2    0  502  0.83349468303E+02 -0.75480640083E+02  0.14380525141E+03  0.24980488724E+03  0.17052293236E+03 0.  0.
        -24    2    5    5    0    0 -0.24616385989E+02 -0.21034987613E+02  0.52224473697E+02  0.98048228034E+02  0.76404333677E+02 0.  0.
          5    1    3    3  501    0  0.55764017693E+01 -0.18645584833E+02  0.40742868934E+02  0.45396315483E+02  0.47000000000E+01 0. -1.
        -13    1    4    4    0    0 -0.41691839200E+02 -0.30676289800E+01 -0.26652194618E+02  0.49577810373E+02  0.00000000000E+00 0.  1.
         14    1    4    4    0    0 -0.47234030873E+02  0.97193853896E+02 -0.19323509025E+02  0.10977748817E+03  0.00000000000E+00 0. -1.
         -5    1    5    5    0  502  0.10796585429E+03 -0.54445652470E+02  0.91580777711E+02  0.15175665920E+03  0.47000000000E+01 0.  1.
         11    1    6    6    0    0  0.86355780803E+01 -0.37804889258E+02  0.69025108346E+01  0.39388164675E+02  0.00000000000E+00 0. -1.
        -12    1    6    6    0    0 -0.33251964069E+02  0.16769901645E+02  0.45321962862E+02  0.58660063360E+02  0.00000000000E+00 0.  1.
</event>
<event>
12    1  0.1596842E-001  0.1965040E+03  0.7818608E-02  0.1152840E+00
         21   -1    0    0  503  502  0.00000000000E+00  0.00000000000E+00  0.10568023432E+04  0.10568023432E+04  0.00000000000E+00 0. -1.
         21   -1    0    0  501  503 -0.00000000000E+00 -0.00000000000E+00 -0.39788235454E+02  0.39788235454E+02  0.00000000000E+00 0. -1.
          6    2    1    2  501    0 -0.28941535011E+02  0.90383363648E+02  0.66827889174E+03  0.69657053463E+03  0.17206704419E+03 0.  0.
         24    2    3    3    0    0 -0.75414214110E+02  0.99582153048E+02  0.48197121175E+03  0.50427656891E+03  0.79966868761E+02 0.  0.
         -6    2    1    2    0  502  0.28941535011E+02 -0.90383363648E+02  0.34873521602E+03  0.40002004404E+03  0.17144392630E+03 0.  0.
        -24    2    5    5    0    0 -0.25629564888E+01 -0.33192586513E+02  0.54220734631E+02  0.98317893363E+02  0.74954676612E+02 0.  0.
          5    1    3    3  501    0  0.46472679099E+02 -0.91987894002E+01  0.18630767999E+03  0.19229396572E+03  0.47000000000E+01 0. -1.
        -13    1    4    4    0    0  0.90987857896E+01  0.32478507278E+02  0.61107840755E+02  0.69798349118E+02  0.00000000000E+00 0.  1.
         14    1    4    4    0    0 -0.84512999899E+02  0.67103645771E+02  0.42086337100E+03  0.43447821979E+03  0.00000000000E+00 0. -1.
         -5    1    5    5    0  502  0.31504491500E+02 -0.57190777135E+02  0.29451448139E+03  0.30170215068E+03  0.47000000000E+01 0.  1.
         11    1    6    6    0    0  0.34957696295E+02 -0.87484708523E+01  0.15935123894E+02  0.39401833029E+02  0.00000000000E+00 0. -1.
        -12    1    6    6    0    0 -0.37520652784E+02 -0.24444115661E+02  0.38285610736E+02  0.58916060334E+02  0.00000000000E+00 0.  1.
</event>
<event>
12    1  0.1596842E-001  0.2559286E+03  0.7818608E-02  0.1111349E+00
         21   -1    0    0  501  502  0.00000000000E+00  0.00000000000E+00  0.15542376133E+03  0.15542376133E+03  0.00000000000E+00 0.  1.
         21   -1    0    0  502  503 -0.00000000000E+00 -0.00000000000E+00 -0.79622910608E+03  0.79622910608E+03  0.00000000000E+00 0.  1.
         -6    2    1    2    0  503  0.11297640105E+03 -0.13265100258E+03 -0.65098869200E+03  0.69552173687E+03  0.17205886684E+03 0.  0.
        -24    2    3    3    0    0  0.11440073162E+02 -0.39105330532E+02 -0.14068161319E+03  0.16684809148E+03  0.79917877792E+02 0.  0.
          6    2    1    2  501    0 -0.11297640105E+03  0.13265100258E+03  0.10183347253E+02  0.25613113054E+03  0.18745532746E+03 0.  0.
         24    2    5    5    0    0 -0.55098019892E+02  0.42977236435E+02  0.67800594658E+02  0.13475103111E+03  0.93156240268E+02 0.  0.
          5    1    5    5  501    0 -0.57878381159E+02  0.89673766147E+02 -0.57617247405E+02  0.12138009944E+03  0.47000000000E+01 0. -1.
        -11    1    6    6    0    0 -0.72215447859E+02  0.49116654325E+02  0.29210981469E+02  0.92091248661E+02  0.00000000000E+00 0.  1.
         12    1    6    6    0    0  0.17117427968E+02 -0.61394178902E+01  0.38589613189E+02  0.42659782446E+02  0.00000000000E+00 0. -1.
         -5    1    3    3    0  503  0.10153632789E+03 -0.93545672050E+02 -0.51030707882E+03  0.52867364539E+03  0.47000000000E+01 0.  1.
         11    1    4    4    0    0  0.16845957001E+02  0.48602970780E+01  0.18134744399E+01  0.17626611827E+02  0.00000000000E+00 0. -1.
        -12    1    4    4    0    0 -0.54058838387E+01 -0.43965627610E+02 -0.14249508762E+03  0.14922147965E+03  0.00000000000E+00 0.  1.
</event>
<event>
12    1  0.1596842E-001  0.2868387E+03  0.7818608E-02  0.1092086E+00
         21   -1    0    0  501  502  0.00000000000E+00  0.00000000000E+00  0.14137376759E+04  0.14137376759E+04  0.00000000000E+00 0. -1.
         21   -1    0    0  502  503 -0.00000000000E+00 -0.00000000000E+00 -0.12550844974E+03  0.12550844974E+03  0.00000000000E+00 0. -1.
         -6    2    1    2    0  503  0.20436846166E+03 -0.10468425688E+03  0.79728949793E+02  0.29717149817E+03  0.17096471019E+03 0.  0.
        -24    2    3    3    0    0  0.20025173095E+03 -0.12973063195E+03  0.42709619911E+02  0.25204069759E+03  0.69062355852E+02 0.  0.
          6    2    1    2  501    0 -0.20436846166E+03  0.10468425688E+03  0.12085002764E+04  0.12420746275E+04  0.17190462612E+03 0.  0.
         24    2    5    5    0    0 -0.36574418393E+02  0.68159364966E+02  0.50776329112E+03  0.52058774528E+03  0.84880231005E+02 0.  0.
          5    1    5    5  501    0 -0.16779404327E+03  0.36524891910E+02  0.70073698527E+03  0.72148688222E+03  0.47000000000E+01 0. -1.
        -11    1    6    6    0    0  0.16862627856E+02  0.88982465428E+01  0.25070881156E+03  0.25143276478E+03  0.00000000000E+00 0.  1.
         12    1    6    6    0    0 -0.53437046249E+02  0.59261118423E+02  0.25705447956E+03  0.26915498050E+03  0.00000000000E+00 0. -1.
         -5    1    3    3    0  503  0.41167307157E+01  0.25046375075E+02  0.37019329883E+02  0.45130800582E+02  0.47000000000E+01 0.  1.
         13    1    4    4    0    0  0.14712658626E+03 -0.68032616198E+02  0.46381269576E+01  0.16216097395E+03  0.00000000000E+00 0. -1.
        -14    1    4    4    0    0  0.53125144686E+02 -0.61698015752E+02  0.38071492953E+02  0.89879723638E+02  0.00000000000E+00 0.  1.
</event>
<event>
12    1  0.1596842E-001  0.2340645E+03  0.7818608E-02  0.1124018E+00
         21   -1    0    0  501  502  0.00000000000E+00  0.00000000000E+00  0.62801676032E+02  0.62801676032E+02  0.00000000000E+00 0. -1.
         21   -1    0    0  502  503 -0.00000000000E+00 -0.00000000000E+00 -0.20678550324E+04  0.20678550324E+04  0.00000000000E+00 0. -1.
         -6    2    1    2    0  503  0.87146588365E+02  0.12922783952E+03 -0.18129754626E+04  0.18278694858E+04  0.17301001888E+03 0.  0.
        -24    2    3    3    0    0 -0.74032748345E+01  0.17676064741E+02 -0.56352159851E+03  0.56987881666E+03  0.82692333009E+02 0.  0.
          6    2    1    2  501    0 -0.87146588365E+02 -0.12922783952E+03 -0.19207789379E+03  0.30278722268E+03  0.17461907848E+03 0.  0.
         24    2    5    5    0    0 -0.16633340090E+02 -0.11620551636E+03 -0.18134186045E+03  0.23013014117E+03  0.79338650646E+02 0.  0.
          5    1    5    5  501    0 -0.70513248275E+02 -0.13022323151E+02 -0.10736033332E+02  0.72657081515E+02  0.47000000000E+01 0. -1.
        -11    1    6    6    0    0 -0.30769871393E+02 -0.25720707077E+02 -0.99611968606E+02  0.10738195401E+03  0.00000000000E+00 0.  1.
         12    1    6    6    0    0  0.14136531303E+02 -0.90484809287E+02 -0.81729891847E+02  0.12274818716E+03  0.00000000000E+00 0. -1.
         -5    1    3    3    0  503  0.94549863199E+02  0.11155177477E+03 -0.12494538641E+04  0.12579906691E+04  0.47000000000E+01 0.  1.
         11    1    4    4    0    0 -0.24912071803E+02 -0.55134861208E+01 -0.49226065196E+03  0.49292145350E+03  0.00000000000E+00 0. -1.
        -12    1    4    4    0    0  0.17508796969E+02  0.23189550861E+02 -0.71260946555E+02  0.76957363159E+02  0.00000000000E+00 0.  1.
</event>
